/*--------------------------------*- C++ -*----------------------------------*\
| =========                 |                                                 |
| \\      /  F ield         | OpenFOAM: The Open Source CFD Toolbox           |
|  \\    /   O peration     | Version:  2306                                  |
|   \\  /    A nd           | Website:  www.openfoam.com                      |
|    \\/     M anipulation  |                                                 |
\*---------------------------------------------------------------------------*/
FoamFile
{
    version     2.0;
    format      ascii;
    arch        "LSB;label=32;scalar=64";
    class       volScalarField;
    location    "3.26";
    object      p;
}
// * * * * * * * * * * * * * * * * * * * * * * * * * * * * * * * * * * * * * //

dimensions      [0 2 -2 0 0 0 0];

internalField   nonuniform List<scalar> 
1900
(
0.0582503
0.0340218
0.0136224
-0.00173004
-0.0127655
-0.0233457
-0.0338194
-0.0460305
-0.0586453
-0.0727823
0.0289901
0.0207895
0.0094668
-0.00209601
-0.0131357
-0.0233437
-0.0338048
-0.0443527
-0.055891
-0.0669811
0.0199045
0.0154119
0.00789176
-0.00148338
-0.0115764
-0.0215667
-0.0313591
-0.0409265
-0.0503707
-0.0594792
0.0142111
0.0111367
0.00548429
-0.00216795
-0.0110248
-0.0202713
-0.0294697
-0.0383916
-0.0469937
-0.055159
0.0119963
0.00946071
0.00472159
-0.00192696
-0.00990618
-0.01851
-0.0271847
-0.0356068
-0.0436242
-0.0511465
0.0126399
0.0101599
0.00555065
-0.000912087
-0.0086472
-0.016946
-0.0252488
-0.0332375
-0.0407867
-0.0478671
0.0161043
0.0131599
0.00788197
0.000803877
-0.00724909
-0.0155259
-0.0235603
-0.031174
-0.0383582
-0.0451469
0.0228108
0.0185176
0.0116246
0.00316312
-0.00564626
-0.0140563
-0.0218706
-0.0291822
-0.0361396
-0.0428039
0.0329581
0.0248618
0.0144318
0.00398033
-0.00531314
-0.0134068
-0.0207524
-0.0277716
-0.034627
-0.0412774
0.0618112
0.0391422
0.0194423
0.00539045
-0.00425182
-0.0119269
-0.0191301
-0.0263156
-0.0334324
-0.0402742
-0.0961001
-0.096134
-0.0961771
-0.0962287
-0.0962861
-0.0963492
-0.0964176
-0.0964903
-0.0965659
-0.0966429
-0.09672
-0.0967956
-0.0968683
-0.0969367
-0.0969995
-0.0970554
-0.0971033
-0.0971422
-0.0971713
-0.0971898
-0.0971973
-0.0971934
-0.0971777
-0.0971502
-0.097111
-0.0970604
-0.0969988
-0.0969273
-0.0968473
-0.096761
-0.0966714
-0.0965821
-0.0964974
-0.0964207
-0.0963535
-0.0962928
-0.0962288
-0.0961421
-0.0960028
-0.0957712
-0.0954013
-0.0948441
-0.0940487
-0.0929586
-0.0915068
-0.0896103
-0.0871705
-0.0840776
-0.0802103
-0.0754653
-0.0697752
-0.0631139
-0.0555059
-0.0470342
-0.0378077
-0.0279785
-0.0177393
-0.00731329
0.00307818
0.0132067
0.0228573
0.0318334
0.0399699
0.0471337
0.0532361
0.0582277
0.0620931
0.0648533
0.0665556
0.0672718
0.067087
0.0661025
0.0644221
0.0621537
0.0593972
0.056251
0.0527988
0.0491209
0.0452796
0.0413351
0.0373274
0.0332984
0.0292676
0.0252626
0.0212849
0.0173525
0.0134498
0.00959168
0.00574362
0.00192986
-0.0960965
-0.096127
-0.0961529
-0.0961923
-0.0962411
-0.0962981
-0.0963616
-0.09643
-0.0965018
-0.0965755
-0.0966497
-0.0967228
-0.0967935
-0.0968601
-0.0969213
-0.0969759
-0.0970226
-0.0970604
-0.0970883
-0.0971056
-0.0971117
-0.0971061
-0.0970884
-0.0970586
-0.0970165
-0.0969623
-0.0968963
-0.0968191
-0.0967316
-0.096635
-0.096531
-0.0964218
-0.0963099
-0.0961975
-0.0960859
-0.0959733
-0.0958539
-0.0957156
-0.0955388
-0.0952969
-0.0949562
-0.0944767
-0.0938093
-0.0928924
-0.0916482
-0.089977
-0.0877533
-0.0848365
-0.0811052
-0.0764684
-0.0708806
-0.0643327
-0.0568286
-0.0484145
-0.0392107
-0.0293797
-0.0191154
-0.00864879
0.00178986
0.0119714
0.0216709
0.0306942
0.0388778
0.046071
0.0521991
0.0572149
0.0611011
0.0638792
0.0655963
0.06633
0.0661682
0.0652128
0.0635646
0.0613331
0.0586159
0.0555138
0.0521071
0.0484791
0.0446877
0.0407971
0.0368415
0.0328683
0.0288894
0.0249402
0.0210116
0.0171332
0.0132758
0.00946971
0.00566785
0.00191179
-0.095979
-0.0960603
-0.0961041
-0.0961555
-0.0962094
-0.0962683
-0.0963334
-0.0964035
-0.0964773
-0.0965533
-0.0966301
-0.0967059
-0.0967793
-0.0968487
-0.0969127
-0.0969697
-0.0970187
-0.0970584
-0.0970878
-0.0971062
-0.0971128
-0.0971072
-0.0970892
-0.0970586
-0.0970156
-0.0969603
-0.0968931
-0.0968147
-0.0967257
-0.0966268
-0.096519
-0.0964036
-0.0962819
-0.096155
-0.0960237
-0.0958876
-0.095745
-0.0955927
-0.0954247
-0.0952285
-0.0949817
-0.0946512
-0.094185
-0.0935064
-0.0925148
-0.0910887
-0.0890847
-0.0863589
-0.0828023
-0.0783056
-0.0727834
-0.0662212
-0.0586655
-0.0502015
-0.0409538
-0.0310858
-0.0207713
-0.0102911
0.000142804
0.0103083
0.0199882
0.0289888
0.0371386
0.0443062
0.0504035
0.0553876
0.0592437
0.0619979
0.0636986
0.0644264
0.064268
0.0633295
0.0617102
0.0595223
0.0568602
0.0538269
0.0504988
0.0469616
0.0432684
0.039486
0.0356436
0.0317919
0.0279374
0.024119
0.020323
0.0165812
0.0128606
0.00919096
0.00552186
0.00188783
-0.096066
-0.0961376
-0.0961396
-0.0961626
-0.0962051
-0.0962642
-0.0963342
-0.0964113
-0.0964929
-0.0965769
-0.0966615
-0.0967448
-0.096825
-0.0969006
-0.0969698
-0.0970314
-0.0970839
-0.0971261
-0.0971571
-0.0971761
-0.0971825
-0.0971761
-0.0971567
-0.0971241
-0.0970784
-0.0970198
-0.0969486
-0.0968652
-0.0967698
-0.0966629
-0.0965445
-0.0964146
-0.0962739
-0.0961244
-0.0959695
-0.0958135
-0.0956615
-0.0955172
-0.0953806
-0.0952448
-0.0950925
-0.0948929
-0.0945872
-0.0940814
-0.0932564
-0.091986
-0.0901234
-0.0875113
-0.084019
-0.0795691
-0.0740872
-0.0675715
-0.0600614
-0.0516472
-0.0424618
-0.0326716
-0.0224743
-0.0121159
-0.00182986
0.00816468
0.0176541
0.0264505
0.0343911
0.041356
0.0472606
0.0520676
0.0557683
0.058395
0.0599998
0.0606664
0.0604823
0.0595552
0.057983
0.0558764
0.0533262
0.0504326
0.0472682
0.0439155
0.040424
0.0368578
0.0332432
0.0296282
0.0260184
0.0224495
0.0189087
0.0154233
0.0119637
0.0085522
0.00514301
0.00175845
-0.0957394
-0.0959433
-0.0960317
-0.0961326
-0.0962279
-0.0963176
-0.0964064
-0.0964977
-0.0965911
-0.0966852
-0.0967782
-0.0968685
-0.0969544
-0.0970342
-0.0971064
-0.0971696
-0.0972225
-0.0972639
-0.0972928
-0.0973086
-0.0973108
-0.0972994
-0.0972745
-0.0972361
-0.0971846
-0.0971201
-0.0970432
-0.0969541
-0.0968528
-0.0967391
-0.0966127
-0.0964732
-0.0963209
-0.0961577
-0.0959895
-0.0958237
-0.0956688
-0.0955325
-0.0954182
-0.0953186
-0.09521
-0.0950731
-0.0948401
-0.094398
-0.0936254
-0.0923801
-0.0905249
-0.0879189
-0.0844397
-0.0800032
-0.0745564
-0.0680987
-0.0606786
-0.0523936
-0.0433814
-0.0338168
-0.0239004
-0.0138596
-0.00392853
0.00567606
0.0147521
0.0231242
0.0306438
0.0372042
0.0427327
0.0472015
0.0506119
0.0530036
0.0544342
0.0549897
0.0547584
0.0538458
0.0523471
0.0503675
0.0479929
0.0453165
0.0424059
0.0393363
0.0361537
0.0329147
0.0296446
0.0263838
0.0231395
0.0199397
0.0167759
0.0136672
0.0105913
0.00756101
0.0045426
0.00154904
-0.0965756
-0.0965954
-0.0964904
-0.0964412
-0.0964476
-0.0965015
-0.0965855
-0.0966824
-0.0967814
-0.096879
-0.0969734
-0.0970629
-0.0971462
-0.0972218
-0.0972885
-0.0973451
-0.0973906
-0.0974239
-0.097444
-0.0974506
-0.0974437
-0.0974233
-0.09739
-0.097344
-0.0972855
-0.0972148
-0.0971326
-0.0970391
-0.0969341
-0.0968169
-0.0966869
-0.0965432
-0.0963855
-0.0962161
-0.0960456
-0.0958802
-0.0957275
-0.0955948
-0.0954844
-0.0953889
-0.0952792
-0.0951044
-0.0948119
-0.0943012
-0.0934472
-0.0921153
-0.0901694
-0.0874813
-0.0839402
-0.0794728
-0.074043
-0.067659
-0.060378
-0.052305
-0.0435847
-0.0343948
-0.0249362
-0.0154242
-0.0060777
0.00289923
0.0113227
0.0190363
0.0259126
0.0318626
0.0368321
0.0408068
0.0438016
0.045864
0.0470583
0.04747
0.047187
0.0463083
0.0449244
0.0431302
0.0410052
0.0386307
0.0360685
0.0333822
0.0306139
0.0278097
0.0249934
0.0221962
0.0194267
0.0167044
0.0140251
0.0113999
0.00881421
0.0062734
0.00375588
0.00126724
-0.0952353
-0.095887
-0.096088
-0.0963422
-0.0965552
-0.0967157
-0.0968349
-0.0969322
-0.097021
-0.0971049
-0.0971843
-0.0972584
-0.097326
-0.0973862
-0.0974378
-0.09748
-0.0975122
-0.0975332
-0.0975418
-0.0975377
-0.0975211
-0.0974921
-0.0974509
-0.097398
-0.0973332
-0.0972566
-0.0971707
-0.0970751
-0.0969687
-0.0968507
-0.0967206
-0.0965778
-0.0964218
-0.0962513
-0.096069
-0.0958871
-0.0957121
-0.0955465
-0.0953867
-0.0952192
-0.0950141
-0.094724
-0.0942823
-0.0935936
-0.0925415
-0.0910014
-0.0888503
-0.0859785
-0.0822971
-0.0777496
-0.072317
-0.0660228
-0.0589354
-0.0511684
-0.0428705
-0.0342188
-0.0254074
-0.0166381
-0.00810686
6.35569e-06
0.00754618
0.0143837
0.0204196
0.0255889
0.02986
0.0332348
0.0357417
0.037434
0.0383791
0.038658
0.038354
0.0375552
0.0363437
0.0348007
0.0329965
0.0309983
0.0288602
0.0266328
0.0243532
0.0220566
0.0197646
0.0174993
0.01527
0.0130887
0.0109552
0.00887379
0.00683718
0.00484473
0.00288546
0.00096
-0.0999576
-0.0985803
-0.0979502
-0.0975146
-0.0972855
-0.0971932
-0.0971779
-0.097198
-0.097232
-0.0972724
-0.0973161
-0.0973603
-0.0974032
-0.0974431
-0.0974783
-0.0975071
-0.0975287
-0.0975394
-0.0975388
-0.0975275
-0.0975059
-0.0974734
-0.0974299
-0.0973752
-0.0973092
-0.0972295
-0.0971342
-0.097027
-0.0969073
-0.0967729
-0.0966214
-0.0964512
-0.0962612
-0.0960515
-0.0958246
-0.0955848
-0.0953342
-0.0950704
-0.094784
-0.0944558
-0.0940527
-0.0935245
-0.0928028
-0.0918015
-0.0904195
-0.0885504
-0.0860921
-0.0829587
-0.0790883
-0.0744476
-0.0690378
-0.0628994
-0.0561113
-0.0487897
-0.0410803
-0.0331524
-0.025184
-0.0173546
-0.00983288
-0.00276845
0.00371991
0.00953746
0.014618
0.0189234
0.0224448
0.0251978
0.0272198
0.0285637
0.0292941
0.0294821
0.0292022
0.0285288
0.0275333
0.0262822
0.0248353
0.0232455
0.0215586
0.0198129
0.0180406
0.0162667
0.0145111
0.0127873
0.0111058
0.00947156
0.00788844
0.00635522
0.00487103
0.00343023
0.00202931
0.000661784
-0.0941008
-0.0952021
-0.0960431
-0.0966553
-0.0969701
-0.0970849
-0.0971148
-0.0971222
-0.0971328
-0.0971576
-0.0971916
-0.0972282
-0.0972646
-0.0972992
-0.0973312
-0.0973586
-0.0973812
-0.0973986
-0.0974028
-0.0973914
-0.0973655
-0.0973271
-0.0972751
-0.0972073
-0.0971217
-0.0970165
-0.0968906
-0.0967438
-0.0965745
-0.0963802
-0.0961579
-0.0959049
-0.0956186
-0.0952975
-0.0949405
-0.0945464
-0.0941128
-0.0936327
-0.0930923
-0.0924685
-0.0917278
-0.0908239
-0.0896965
-0.0882737
-0.0864754
-0.0842201
-0.0814323
-0.0780496
-0.0740307
-0.0693656
-0.0640772
-0.0582219
-0.0518868
-0.0451864
-0.0382559
-0.0312442
-0.0243017
-0.0175737
-0.0111903
-0.00526516
0.00011346
0.00488257
0.00900664
0.0124705
0.0152818
0.0174632
0.019054
0.0201014
0.0206623
0.0207952
0.0205643
0.0200306
0.0192558
0.0182931
0.0171929
0.0159951
0.0147378
0.0134484
0.0121545
0.0108719
0.00961922
0.00840246
0.00723357
0.00611095
0.00504265
0.00402141
0.00305338
0.00212703
0.00124803
0.000400918
-0.116838
-0.101893
-0.0999581
-0.0984777
-0.0975589
-0.0971265
-0.0969479
-0.0968799
-0.0968516
-0.0968463
-0.0968748
-0.0969271
-0.0969858
-0.0970401
-0.0970868
-0.097125
-0.097153
-0.097168
-0.0971642
-0.0971383
-0.0970897
-0.0970182
-0.096922
-0.0967981
-0.0966434
-0.0964552
-0.096231
-0.0959682
-0.0956642
-0.0953165
-0.0949226
-0.0944793
-0.0939837
-0.0934331
-0.0928248
-0.0921555
-0.09142
-0.0906098
-0.0897102
-0.0886985
-0.0875416
-0.0861966
-0.0846145
-0.0827415
-0.0805214
-0.0779002
-0.0748314
-0.071282
-0.0672382
-0.0627102
-0.0577331
-0.0523664
-0.0466904
-0.0408046
-0.0348219
-0.0288621
-0.0230431
-0.0174751
-0.012252
-0.00745427
-0.00314221
0.000646062
0.00389531
0.00660322
0.00878406
0.0104618
0.0116743
0.0124622
0.0128745
0.0129593
0.0127715
0.0123615
0.011783
0.0110782
0.0102898
0.00944647
0.0085794
0.00770526
0.00684675
0.00601076
0.0052145
0.00445686
0.00375199
0.00309157
0.00248852
0.00192805
0.00142449
0.000957831
0.000545584
0.000159505
-0.0843099
-0.0908028
-0.0933147
-0.094148
-0.0945816
-0.0949686
-0.0953251
-0.0956222
-0.0958776
-0.0960986
-0.096286
-0.0964422
-0.0965706
-0.0966743
-0.0967549
-0.0968118
-0.0968424
-0.0968425
-0.0968074
-0.0967329
-0.0966163
-0.0964555
-0.0962487
-0.0959937
-0.0956881
-0.0953295
-0.0949159
-0.0944449
-0.0939141
-0.0933197
-0.0926579
-0.0919259
-0.0911214
-0.0902423
-0.0892863
-0.0882497
-0.087127
-0.08591
-0.0845859
-0.0831365
-0.0815374
-0.0797593
-0.0777691
-0.0755322
-0.0730146
-0.0701861
-0.0670237
-0.0635151
-0.0596619
-0.0554822
-0.0510108
-0.0462981
-0.041408
-0.0364189
-0.0314189
-0.0265008
-0.0217562
-0.0172696
-0.0131119
-0.00933644
-0.00597756
-0.0030548
-0.000573213
0.00147113
0.00309467
0.00432206
0.00518968
0.00573545
0.00600366
0.00603582
0.00587953
0.00557624
0.00517081
0.00469654
0.00418876
0.00366762
0.00315691
0.00266364
0.00220351
0.00177441
0.00139006
0.00104343
0.00075003
0.000496287
0.000299336
0.000137316
3.24855e-05
-4.50089e-05
-6.42651e-05
-6.65506e-05
-0.0782525
-0.0860421
-0.0900333
-0.0914613
-0.0918911
-0.0922169
-0.0926987
-0.0932944
-0.0938898
-0.0944101
-0.0948349
-0.0951739
-0.0954453
-0.0956633
-0.0958342
-0.0959575
-0.0960287
-0.0960416
-0.09599
-0.0958687
-0.0956739
-0.0954033
-0.0950556
-0.09463
-0.0941262
-0.0935436
-0.0928819
-0.0921406
-0.0913192
-0.0904165
-0.0894318
-0.0883643
-0.0872139
-0.0859801
-0.084662
-0.0832576
-0.0817634
-0.080174
-0.0784814
-0.0766745
-0.0747388
-0.0726572
-0.0704094
-0.0679745
-0.0653329
-0.0624686
-0.0593713
-0.0560387
-0.0524787
-0.0487108
-0.0447673
-0.0406936
-0.0365462
-0.0323866
-0.0282802
-0.0242951
-0.020499
-0.016955
-0.0137141
-0.0108128
-0.00827319
-0.00610497
-0.00430296
-0.0028505
-0.001725
-0.000900251
-0.000342739
-1.53183e-05
0.000125526
0.000121625
1.49784e-05
-0.000162592
-0.000380558
-0.000616938
-0.000846654
-0.00105627
-0.00123041
-0.00136907
-0.00146552
-0.00152916
-0.00155361
-0.00154896
-0.00150208
-0.00142734
-0.00130677
-0.00116326
-0.000969912
-0.000760514
-0.000493473
-0.000219999
-0.0679734
-0.0751863
-0.0805304
-0.0840015
-0.0861183
-0.0875448
-0.0887301
-0.0898523
-0.090923
-0.0918968
-0.0927367
-0.0934336
-0.0939982
-0.094447
-0.0947928
-0.0950415
-0.0951929
-0.0952435
-0.0951888
-0.0950252
-0.0947502
-0.0943631
-0.0938644
-0.0932559
-0.0925399
-0.091719
-0.090796
-0.0897738
-0.0886548
-0.0874415
-0.0861361
-0.0847404
-0.083256
-0.0816844
-0.0800263
-0.0782818
-0.07645
-0.074529
-0.0725155
-0.0704047
-0.0681904
-0.0658655
-0.063422
-0.060852
-0.0581472
-0.055301
-0.0523101
-0.0491765
-0.0459091
-0.0425255
-0.0390543
-0.0355363
-0.0320222
-0.028568
-0.0252301
-0.02206
-0.0191006
-0.0163845
-0.0139381
-0.0117855
-0.00994902
-0.0084377
-0.00723356
-0.00629538
-0.0055815
-0.00506267
-0.00471646
-0.00451535
-0.00441775
-0.00437748
-0.00435704
-0.00433878
-0.00431519
-0.00428318
-0.00423418
-0.00416199
-0.00405815
-0.00392322
-0.00375476
-0.00355887
-0.00333275
-0.00308542
-0.00281128
-0.00252136
-0.00220362
-0.00187332
-0.00150771
-0.00113135
-0.000704261
-0.000275544
-0.0626685
-0.0692853
-0.0747471
-0.0789467
-0.0820077
-0.0842425
-0.0859936
-0.0875005
-0.0888712
-0.0901231
-0.0912365
-0.0921912
-0.092981
-0.0936113
-0.0940919
-0.0944301
-0.094629
-0.0946878
-0.0946039
-0.0943749
-0.0939996
-0.0934787
-0.0928146
-0.0920112
-0.0910736
-0.0900073
-0.0888183
-0.0875129
-0.0860969
-0.0845758
-0.0829545
-0.0812373
-0.0794277
-0.0775289
-0.0755437
-0.0734746
-0.0713237
-0.0690929
-0.0667839
-0.064398
-0.0619365
-0.0594008
-0.056793
-0.054115
-0.0513686
-0.0485559
-0.0456795
-0.0427443
-0.0397578
-0.0367324
-0.0336892
-0.0306615
-0.0276975
-0.0248574
-0.0222011
-0.019772
-0.0175855
-0.0156296
-0.0138852
-0.012358
-0.0110824
-0.0100847
-0.00934214
-0.00878189
-0.0083235
-0.00793348
-0.00761871
-0.00738623
-0.00721252
-0.00705341
-0.00687239
-0.00665333
-0.00639779
-0.00612014
-0.00583415
-0.00554735
-0.00525793
-0.00496281
-0.00465659
-0.00433854
-0.00400553
-0.0036601
-0.00329908
-0.00292671
-0.00253706
-0.00213565
-0.00170996
-0.00126875
-0.000786863
-0.000289973
-0.0580901
-0.0643483
-0.0697931
-0.0743267
-0.0779542
-0.0808087
-0.0831019
-0.0850349
-0.0867413
-0.0882799
-0.0896585
-0.0908637
-0.0918821
-0.0927082
-0.0933437
-0.0937926
-0.0940581
-0.0941409
-0.0940405
-0.0937565
-0.0932897
-0.0926428
-0.0918204
-0.090829
-0.0896762
-0.0883707
-0.0869218
-0.0853394
-0.0836328
-0.0818109
-0.0798814
-0.0778512
-0.075726
-0.0735112
-0.0712118
-0.0688329
-0.0663803
-0.06386
-0.061279
-0.0586448
-0.0559657
-0.0532505
-0.0505092
-0.0477525
-0.044992
-0.0422391
-0.0395043
-0.0367953
-0.0341177
-0.0314758
-0.0288771
-0.0263377
-0.0238925
-0.0216054
-0.0195505
-0.0177793
-0.0162819
-0.0149854
-0.0138083
-0.0127345
-0.0118119
-0.0110978
-0.0105917
-0.0102097
-0.00983938
-0.00942754
-0.0089987
-0.00860134
-0.00825129
-0.00792826
-0.00762037
-0.00731564
-0.00699796
-0.00666264
-0.0063152
-0.00596225
-0.00560621
-0.00524787
-0.00488633
-0.00452128
-0.00415071
-0.00377427
-0.00338963
-0.00299718
-0.00259345
-0.00217865
-0.00174565
-0.00129344
-0.000806386
-0.000290036
-0.0544587
-0.0605061
-0.0659226
-0.0706295
-0.0746028
-0.0778959
-0.080631
-0.0829547
-0.0849886
-0.0868053
-0.0884311
-0.0898637
-0.0910902
-0.0920986
-0.0928826
-0.0934401
-0.0937709
-0.0938752
-0.093753
-0.093406
-0.0928377
-0.0920544
-0.0910642
-0.0898767
-0.0885028
-0.0869542
-0.0852437
-0.0833842
-0.0813886
-0.0792691
-0.0770365
-0.0747008
-0.0722703
-0.0697531
-0.0671568
-0.0644896
-0.061761
-0.0589822
-0.0561659
-0.0533271
-0.0504813
-0.0476443
-0.0448315
-0.0420592
-0.0393478
-0.0367188
-0.0341891
-0.0317662
-0.0294499
-0.0272346
-0.0251113
-0.0230723
-0.0211243
-0.0193134
-0.0177175
-0.0164155
-0.0153942
-0.014541
-0.0137426
-0.01296
-0.0122246
-0.0115623
-0.0110172
-0.0105798
-0.0101853
-0.00979725
-0.00943116
-0.00907359
-0.0086999
-0.00830707
-0.00789825
-0.00748115
-0.00707075
-0.00667738
-0.00630025
-0.00593726
-0.00558339
-0.00523242
-0.00487895
-0.00451978
-0.00415312
-0.00377781
-0.00339278
-0.00299806
-0.00259231
-0.00217474
-0.00174123
-0.00128791
-0.000805445
-0.000289589
-0.0515374
-0.0574734
-0.0628728
-0.0676697
-0.0718435
-0.0754268
-0.0784963
-0.0811515
-0.0834866
-0.0855687
-0.0874313
-0.0890801
-0.0905049
-0.0916904
-0.092623
-0.0932934
-0.0936961
-0.0938279
-0.0936879
-0.0932781
-0.0926054
-0.091681
-0.0905187
-0.0891327
-0.087538
-0.0857504
-0.083786
-0.0816617
-0.079394
-0.0769986
-0.0744899
-0.0718811
-0.0691838
-0.0664087
-0.0635667
-0.0606693
-0.0577295
-0.0547637
-0.0517908
-0.0488338
-0.0459176
-0.0430664
-0.0402982
-0.037624
-0.0350671
-0.0326533
-0.0303966
-0.0282935
-0.0263292
-0.0244916
-0.0227626
-0.0211388
-0.0196316
-0.018236
-0.0169899
-0.0159226
-0.0150252
-0.014261
-0.0135899
-0.0130072
-0.0125149
-0.0121103
-0.011669
-0.0111275
-0.0105141
-0.00992142
-0.00939381
-0.00893896
-0.00854596
-0.00818009
-0.00781657
-0.00744745
-0.00707332
-0.00669661
-0.00632586
-0.00596142
-0.00560083
-0.00524114
-0.0048796
-0.00451397
-0.00414169
-0.00376165
-0.00337302
-0.00297523
-0.00256715
-0.00214745
-0.00171319
-0.00126142
-0.000787911
-0.000282125
-0.0491348
-0.0550402
-0.0604358
-0.065277
-0.0695647
-0.0733375
-0.0766558
-0.0795873
-0.0821967
-0.0845348
-0.0866315
-0.0884952
-0.0901177
-0.0914819
-0.0925684
-0.0933608
-0.093847
-0.0940193
-0.0938744
-0.0934143
-0.0926473
-0.0915901
-0.0902631
-0.0886879
-0.086887
-0.0848827
-0.0826973
-0.0803525
-0.0778686
-0.0752646
-0.0725575
-0.0697625
-0.0668932
-0.0639623
-0.0609822
-0.0579664
-0.0549303
-0.0518922
-0.0488749
-0.0459058
-0.0430162
-0.04024
-0.0376037
-0.035119
-0.0328029
-0.030664
-0.0286935
-0.0268647
-0.0251367
-0.0234798
-0.0219028
-0.0204548
-0.0191959
-0.0181799
-0.01739
-0.016715
-0.015965
-0.0150774
-0.0141049
-0.0131899
-0.0124524
-0.0118661
-0.0113718
-0.0108997
-0.0104183
-0.00993749
-0.00947578
-0.00905042
-0.00865056
-0.0082602
-0.0078707
-0.00748092
-0.00709446
-0.00671442
-0.00634072
-0.00597257
-0.00560799
-0.00524427
-0.00487874
-0.00450922
-0.00413384
-0.00375115
-0.00336001
-0.00295947
-0.00254836
-0.00212512
-0.00168779
-0.00123599
-0.000769375
-0.000273189
-0.0475937
-0.0534603
-0.058817
-0.0636553
-0.0679995
-0.0718906
-0.0753798
-0.0785177
-0.0813471
-0.0839029
-0.0862061
-0.0882611
-0.0900583
-0.0915793
-0.0928018
-0.0937044
-0.094269
-0.0944833
-0.0943421
-0.0938482
-0.0930113
-0.0918472
-0.0903798
-0.0886391
-0.0866584
-0.0844708
-0.082108
-0.0795985
-0.0769677
-0.0742373
-0.0714254
-0.0685475
-0.0656168
-0.0626449
-0.0596433
-0.056624
-0.053601
-0.0505915
-0.047617
-0.0447052
-0.0418894
-0.0392105
-0.0367097
-0.0344299
-0.0323909
-0.030581
-0.028954
-0.0274345
-0.0259475
-0.0244193
-0.0228341
-0.0212347
-0.0197158
-0.0183811
-0.0172891
-0.0163727
-0.0155532
-0.0147597
-0.0139875
-0.013271
-0.01263
-0.0120761
-0.0115583
-0.0110412
-0.0105187
-0.0100081
-0.00952756
-0.00908151
-0.00866435
-0.00826559
-0.00787619
-0.00749136
-0.00710979
-0.00673196
-0.00635854
-0.00598903
-0.00562192
-0.00525514
-0.00488658
-0.00451422
-0.00413626
-0.0037512
-0.00335769
-0.00295455
-0.0025405
-0.00211403
-0.00167399
-0.00122154
-0.000757948
-0.000268306
-0.0466743
-0.0525563
-0.0579111
-0.0627651
-0.0671581
-0.0711337
-0.0747371
-0.0780129
-0.0810001
-0.0837223
-0.0861885
-0.0883952
-0.0903287
-0.0919693
-0.0932937
-0.0942795
-0.0949078
-0.0951659
-0.0950494
-0.0945627
-0.0937197
-0.0925421
-0.0910579
-0.0892994
-0.0873007
-0.0850964
-0.082719
-0.0801987
-0.0775617
-0.0748305
-0.0720239
-0.0691575
-0.0662446
-0.0632965
-0.060324
-0.0573378
-0.0543504
-0.0513762
-0.0484337
-0.0455456
-0.0427398
-0.0400487
-0.037506
-0.0351405
-0.0329673
-0.0309838
-0.0291684
-0.0274894
-0.025864
-0.0242601
-0.0226769
-0.0211543
-0.0197644
-0.0185625
-0.0175534
-0.0166709
-0.0158245
-0.0149771
-0.0141417
-0.0133658
-0.0126865
-0.0120915
-0.0115469
-0.0110228
-0.0105114
-0.0100193
-0.00955366
-0.0091156
-0.00869914
-0.0082966
-0.00790255
-0.00751455
-0.00713203
-0.00675487
-0.00638254
-0.00601388
-0.00564719
-0.00528048
-0.00491175
-0.00453911
-0.00416082
-0.00377532
-0.0033812
-0.0029771
-0.00256164
-0.00213339
-0.00169119
-0.00123527
-0.000766129
-0.000272497
)
;

boundaryField
{
    fixedWalls
    {
        type            zeroGradient;
    }
    inflowWall
    {
        type            zeroGradient;
    }
    outflowWall
    {
        type            fixedValue;
        value           uniform 0;
    }
    frontAndBack
    {
        type            empty;
    }
}


// ************************************************************************* //
