/*--------------------------------*- C++ -*----------------------------------*\
| =========                 |                                                 |
| \\      /  F ield         | OpenFOAM: The Open Source CFD Toolbox           |
|  \\    /   O peration     | Version:  2306                                  |
|   \\  /    A nd           | Website:  www.openfoam.com                      |
|    \\/     M anipulation  |                                                 |
\*---------------------------------------------------------------------------*/
FoamFile
{
    version     2.0;
    format      ascii;
    arch        "LSB;label=32;scalar=64";
    class       volVectorField;
    location    "0.26";
    object      U;
}
// * * * * * * * * * * * * * * * * * * * * * * * * * * * * * * * * * * * * * //

dimensions      [0 1 -1 0 0 0 0];

internalField   nonuniform List<vector> 
47500
(
(0.708058 0.141126 0)
(0.605107 0.126852 0)
(0.442238 0.0756733 0)
(0.323205 0.0428889 0)
(0.252628 0.0249084 0)
(0.207936 0.0151468 0)
(0.177257 0.00977786 0)
(0.155189 0.00671787 0)
(0.138693 0.00487347 0)
(0.125941 0.00368952 0)
(0.115824 0.00288362 0)
(0.107639 0.00230729 0)
(0.100917 0.00187858 0)
(0.0953329 0.00154965 0)
(0.0906524 0.00129103 0)
(0.0867019 0.00108365 0)
(0.08335 0.000914635 0)
(0.0804953 0.000774978 0)
(0.0780582 0.000658209 0)
(0.075975 0.000559555 0)
(0.0741946 0.000475432 0)
(0.0726753 0.000403092 0)
(0.0713827 0.000340396 0)
(0.0702886 0.00028565 0)
(0.0693693 0.000237494 0)
(0.068605 0.000194821 0)
(0.0679793 0.000156718 0)
(0.0674784 0.000122414 0)
(0.0670909 9.1252e-05 0)
(0.0668073 6.26622e-05 0)
(0.0666201 3.61367e-05 0)
(0.0665235 1.12102e-05 0)
(0.0665132 -1.2556e-05 0)
(0.0665865 -3.55898e-05 0)
(0.0667424 -5.83305e-05 0)
(0.0669819 -8.12534e-05 0)
(0.067308 -0.000104905 0)
(0.0677264 -0.000129955 0)
(0.0682465 -0.000157303 0)
(0.0688828 -0.000188289 0)
(0.0696572 -0.000225178 0)
(0.0706043 -0.000272428 0)
(0.0717805 -0.000340071 0)
(0.0732859 -0.000453065 0)
(0.0753095 -0.000677098 0)
(0.0782272 -0.00118873 0)
(0.082909 -0.0024714 0)
(0.0917872 -0.00592139 0)
(0.110532 -0.0158072 0)
(0.145463 -0.0449327 0)
(0.990012 0.273751 0)
(0.981277 0.298007 0)
(0.863903 0.21609 0)
(0.734143 0.146999 0)
(0.62832 0.100193 0)
(0.545478 0.0697709 0)
(0.480661 0.0501599 0)
(0.429788 0.0373103 0)
(0.389457 0.0286157 0)
(0.357041 0.0225128 0)
(0.330634 0.0180771 0)
(0.308865 0.0147521 0)
(0.290737 0.0121933 0)
(0.275512 0.0101801 0)
(0.262638 0.00856634 0)
(0.251691 0.00725216 0)
(0.242345 0.00616733 0)
(0.234341 0.0052612 0)
(0.227474 0.00449645 0)
(0.221578 0.00384504 0)
(0.216519 0.0032855 0)
(0.212184 0.00280117 0)
(0.208482 0.00237887 0)
(0.205336 0.00200806 0)
(0.202683 0.00168019 0)
(0.200467 0.0013882 0)
(0.198645 0.00112618 0)
(0.197177 0.000889121 0)
(0.196034 0.000672654 0)
(0.195188 0.000472922 0)
(0.194621 0.000286407 0)
(0.194314 0.000109793 0)
(0.194259 -6.01728e-05 0)
(0.194449 -0.000226836 0)
(0.194882 -0.000393842 0)
(0.195563 -0.000565405 0)
(0.196505 -0.000746716 0)
(0.197728 -0.000944576 0)
(0.199266 -0.00116848 0)
(0.20117 -0.00143251 0)
(0.203517 -0.00175895 0)
(0.206425 -0.00218543 0)
(0.210076 -0.00277994 0)
(0.214765 -0.00367362 0)
(0.220971 -0.00513378 0)
(0.229478 -0.00772464 0)
(0.241602 -0.0126576 0)
(0.259645 -0.0225999 0)
(0.286525 -0.0434452 0)
(0.320584 -0.0855977 0)
(1.02873 0.230537 0)
(1.06518 0.337272 0)
(1.02857 0.307935 0)
(0.952112 0.249931 0)
(0.866775 0.194721 0)
(0.785962 0.15009 0)
(0.714442 0.116323 0)
(0.653203 0.0913156 0)
(0.601488 0.0727581 0)
(0.557969 0.0588153 0)
(0.521296 0.0481658 0)
(0.490284 0.0398881 0)
(0.463947 0.0333443 0)
(0.441484 0.0280896 0)
(0.422253 0.0238101 0)
(0.405735 0.0202807 0)
(0.391514 0.017337 0)
(0.379248 0.0148569 0)
(0.36866 0.0127486 0)
(0.359521 0.0109415 0)
(0.351641 0.00938082 0)
(0.344861 0.00802344 0)
(0.339048 0.00683491 0)
(0.33409 0.00578732 0)
(0.329893 0.0048578 0)
(0.326376 0.00402733 0)
(0.323472 0.00327985 0)
(0.321125 0.00260157 0)
(0.319287 0.00198043 0)
(0.31792 0.0014056 0)
(0.316992 0.000867111 0)
(0.31648 0.000355451 0)
(0.316368 -0.000138867 0)
(0.316647 -0.000625764 0)
(0.317317 -0.00111622 0)
(0.318387 -0.00162311 0)
(0.319878 -0.00216244 0)
(0.321824 -0.00275526 0)
(0.324279 -0.00343076 0)
(0.327322 -0.00423136 0)
(0.331071 -0.00522159 0)
(0.335696 -0.00650379 0)
(0.341445 -0.00824661 0)
(0.348682 -0.0107375 0)
(0.357928 -0.0144791 0)
(0.3699 -0.0203583 0)
(0.385513 -0.0299181 0)
(0.405738 -0.0457626 0)
(0.430626 -0.0719653 0)
(0.456323 -0.112718 0)
(1.02485 0.170713 0)
(1.0701 0.31458 0)
(1.08052 0.338862 0)
(1.05259 0.31134 0)
(1.00162 0.267048 0)
(0.941438 0.222038 0)
(0.880406 0.18251 0)
(0.822878 0.149852 0)
(0.770724 0.123531 0)
(0.724428 0.102474 0)
(0.68379 0.0855978 0)
(0.64832 0.0719855 0)
(0.617437 0.0609102 0)
(0.590571 0.0518133 0)
(0.567197 0.0442698 0)
(0.546856 0.0379569 0)
(0.529151 0.0326282 0)
(0.513741 0.0280939 0)
(0.500334 0.0242068 0)
(0.488685 0.0208511 0)
(0.478582 0.0179351 0)
(0.469845 0.0153855 0)
(0.46232 0.0131425 0)
(0.455876 0.0111574 0)
(0.450399 0.0093894 0)
(0.445794 0.00780454 0)
(0.441979 0.00637369 0)
(0.438885 0.00507162 0)
(0.436452 0.00387605 0)
(0.434634 0.00276681 0)
(0.433392 0.00172516 0)
(0.432696 0.000732998 0)
(0.432528 -0.000227816 0)
(0.432877 -0.00117642 0)
(0.433743 -0.00213405 0)
(0.435137 -0.00312562 0)
(0.437086 -0.00418192 0)
(0.439633 -0.00534296 0)
(0.442843 -0.00666304 0)
(0.446807 -0.00821879 0)
(0.451659 -0.010122 0)
(0.457576 -0.0125405 0)
(0.464803 -0.0157315 0)
(0.473659 -0.020096 0)
(0.484541 -0.0262605 0)
(0.497889 -0.0351918 0)
(0.514062 -0.0483181 0)
(0.533055 -0.067576 0)
(0.553757 -0.0951315 0)
(0.572755 -0.131861 0)
(1.01676 0.128188 0)
(1.05701 0.275118 0)
(1.08731 0.331706 0)
(1.09071 0.333617 0)
(1.07009 0.308318 0)
(1.03427 0.272655 0)
(0.990737 0.235655 0)
(0.944691 0.201448 0)
(0.899385 0.171491 0)
(0.856632 0.145944 0)
(0.817296 0.12442 0)
(0.781671 0.106359 0)
(0.749728 0.0911926 0)
(0.721272 0.0784144 0)
(0.696034 0.0675971 0)
(0.673719 0.0583897 0)
(0.654037 0.0505076 0)
(0.636714 0.0437212 0)
(0.621503 0.0378453 0)
(0.608179 0.0327296 0)
(0.596543 0.028252 0)
(0.58642 0.024312 0)
(0.577657 0.0208269 0)
(0.570117 0.0177273 0)
(0.563684 0.014955 0)
(0.558256 0.0124603 0)
(0.553744 0.0102002 0)
(0.550073 0.0081371 0)
(0.547179 0.0062374 0)
(0.54501 0.00447035 0)
(0.543523 0.00280711 0)
(0.542685 0.00121965 0)
(0.542475 -0.000320296 0)
(0.542881 -0.00184262 0)
(0.543903 -0.00338044 0)
(0.545553 -0.00497232 0)
(0.547859 -0.00666534 0)
(0.550864 -0.0085195 0)
(0.554636 -0.0106141 0)
(0.559263 -0.0130573 0)
(0.564868 -0.0160003 0)
(0.571605 -0.019658 0)
(0.579668 -0.0243395 0)
(0.589276 -0.0304892 0)
(0.600654 -0.0387387 0)
(0.613956 -0.0499555 0)
(0.62913 -0.0652506 0)
(0.645684 -0.0858592 0)
(0.662293 -0.112732 0)
(0.676496 -0.145507 0)
(1.01072 0.0991315 0)
(1.04301 0.235169 0)
(1.07861 0.30702 0)
(1.09883 0.33072 0)
(1.09974 0.324344 0)
(1.08498 0.301815 0)
(1.05947 0.272327 0)
(1.02764 0.241309 0)
(0.992878 0.211621 0)
(0.957576 0.184561 0)
(0.923254 0.160544 0)
(0.890806 0.139536 0)
(0.860702 0.121292 0)
(0.833136 0.105492 0)
(0.80813 0.0918111 0)
(0.785605 0.0799448 0)
(0.765427 0.0696254 0)
(0.747436 0.0606218 0)
(0.731463 0.0527377 0)
(0.717341 0.0458073 0)
(0.704909 0.0396905 0)
(0.694021 0.0342694 0)
(0.684539 0.0294438 0)
(0.67634 0.0251283 0)
(0.669315 0.0212496 0)
(0.663365 0.017744 0)
(0.658405 0.014556 0)
(0.654361 0.0116358 0)
(0.651167 0.00893857 0)
(0.648771 0.006423 0)
(0.647129 0.00404978 0)
(0.646207 0.00178053 0)
(0.645984 -0.000423658 0)
(0.646446 -0.00260387 0)
(0.647591 -0.00480544 0)
(0.649432 -0.00708058 0)
(0.651992 -0.00949201 0)
(0.655312 -0.0121178 0)
(0.659449 -0.0150584 0)
(0.664479 -0.0184459 0)
(0.670498 -0.022457 0)
(0.677619 -0.0273309 0)
(0.685965 -0.0333908 0)
(0.695649 -0.0410697 0)
(0.706737 -0.0509316 0)
(0.719176 -0.0636743 0)
(0.732685 -0.0800774 0)
(0.74661 -0.100843 0)
(0.759776 -0.126259 0)
(0.770525 -0.155608 0)
(1.00696 0.0787058 0)
(1.03212 0.199737 0)
(1.0665 0.276239 0)
(1.09406 0.313696 0)
(1.10825 0.322644 0)
(1.10913 0.313166 0)
(1.09907 0.293158 0)
(1.08101 0.268127 0)
(1.0578 0.241581 0)
(1.03174 0.21557 0)
(1.00457 0.19118 0)
(0.97751 0.168895 0)
(0.951366 0.148845 0)
(0.926638 0.130971 0)
(0.903608 0.115114 0)
(0.88241 0.10108 0)
(0.863076 0.0886659 0)
(0.845575 0.0776765 0)
(0.829839 0.0679337 0)
(0.815776 0.0592776 0)
(0.803284 0.0515673 0)
(0.792258 0.044679 0)
(0.782594 0.0385043 0)
(0.774192 0.0329483 0)
(0.766961 0.0279275 0)
(0.760816 0.0233679 0)
(0.75568 0.0192036 0)
(0.751485 0.0153748 0)
(0.748173 0.0118267 0)
(0.745693 0.00850818 0)
(0.744004 0.00537017 0)
(0.743074 0.00236444 0)
(0.742879 -0.000558103 0)
(0.743408 -0.00344918 0)
(0.744656 -0.00636549 0)
(0.746632 -0.00937152 0)
(0.749356 -0.0125433 0)
(0.752858 -0.0159734 0)
(0.757182 -0.0197772 0)
(0.762383 -0.0241012 0)
(0.768525 -0.0291337 0)
(0.775672 -0.035117 0)
(0.78388 -0.0423611 0)
(0.79317 -0.0512538 0)
(0.803492 -0.0622625 0)
(0.814669 -0.0759099 0)
(0.826326 -0.092705 0)
(0.837818 -0.113 0)
(0.848207 -0.136756 0)
(0.856388 -0.163235 0)
(1.00471 0.0639285 0)
(1.02437 0.169811 0)
(1.05518 0.244954 0)
(1.08471 0.289744 0)
(1.1061 0.309617 0)
(1.11748 0.311212 0)
(1.11927 0.300615 0)
(1.11301 0.282686 0)
(1.10065 0.26096 0)
(1.08407 0.237825 0)
(1.06489 0.214791 0)
(1.04438 0.192747 0)
(1.02352 0.172165 0)
(1.00298 0.153248 0)
(0.983232 0.136037 0)
(0.964579 0.120475 0)
(0.947202 0.106457 0)
(0.931193 0.0938559 0)
(0.916584 0.0825347 0)
(0.903367 0.0723606 0)
(0.891503 0.0632075 0)
(0.880941 0.0549591 0)
(0.871617 0.0475088 0)
(0.863464 0.04076 0)
(0.856415 0.0346252 0)
(0.850406 0.0290249 0)
(0.845375 0.0238863 0)
(0.841265 0.0191424 0)
(0.838028 0.0147309 0)
(0.83562 0.0105924 0)
(0.834004 0.00666969 0)
(0.833151 0.00290588 0)
(0.83304 -0.000756962 0)
(0.833659 -0.00437982 0)
(0.835003 -0.00802898 0)
(0.837075 -0.0117789 0)
(0.839888 -0.0157158 0)
(0.843463 -0.019942 0)
(0.847826 -0.0245812 0)
(0.853011 -0.0297856 0)
(0.859047 -0.0357428 0)
(0.865956 -0.0426834 0)
(0.873737 -0.050887 0)
(0.882342 -0.0606825 0)
(0.89165 -0.0724372 0)
(0.901425 -0.0865238 0)
(0.911276 -0.103254 0)
(0.920637 -0.122769 0)
(0.92879 -0.14489 0)
(0.93499 -0.168969 0)
(1.00335 0.0528701 0)
(1.01892 0.144904 0)
(1.04573 0.215619 0)
(1.0745 0.263236 0)
(1.09913 0.29007 0)
(1.11694 0.300131 0)
(1.12715 0.297751 0)
(1.13019 0.286845 0)
(1.12712 0.270589 0)
(1.11929 0.251372 0)
(1.10799 0.230888 0)
(1.09438 0.210275 0)
(1.07942 0.190256 0)
(1.06385 0.171262 0)
(1.04823 0.153516 0)
(1.03299 0.137111 0)
(1.01842 0.122052 0)
(1.0047 0.108294 0)
(0.991958 0.0957594 0)
(0.980259 0.0843582 0)
(0.969632 0.0739929 0)
(0.960077 0.0645655 0)
(0.951574 0.0559812 0)
(0.944094 0.0481496 0)
(0.937598 0.0409853 0)
(0.932046 0.0344085 0)
(0.927396 0.0283441 0)
(0.923606 0.0227212 0)
(0.92064 0.0174726 0)
(0.918464 0.0125332 0)
(0.917047 0.00783963 0)
(0.916367 0.00332832 0)
(0.916406 -0.00106566 0)
(0.91715 -0.00541054 0)
(0.918595 -0.00977993 0)
(0.92074 -0.0142554 0)
(0.923591 -0.0189298 0)
(0.927157 -0.0239104 0)
(0.931449 -0.0293238 0)
(0.936478 -0.0353201 0)
(0.942247 -0.0420776 0)
(0.948741 -0.0498063 0)
(0.955916 -0.0587479 0)
(0.963682 -0.0691707 0)
(0.971879 -0.081353 0)
(0.980255 -0.0955499 0)
(0.988446 -0.111939 0)
(0.995979 -0.130543 0)
(1.00231 -0.151138 0)
(1.00693 -0.173188 0)
(1.00249 0.0443073 0)
(1.01505 0.124157 0)
(1.03815 0.189091 0)
(1.06495 0.236617 0)
(1.09042 0.26728 0)
(1.11174 0.283263 0)
(1.12753 0.287448 0)
(1.13745 0.282781 0)
(1.14186 0.271904 0)
(1.14156 0.25699 0)
(1.13746 0.239721 0)
(1.13048 0.221337 0)
(1.12149 0.202713 0)
(1.11118 0.184439 0)
(1.10014 0.166891 0)
(1.08885 0.150291 0)
(1.07764 0.134753 0)
(1.06679 0.120317 0)
(1.05648 0.106975 0)
(1.04684 0.0946861 0)
(1.03795 0.0833903 0)
(1.02986 0.0730174 0)
(1.0226 0.0634918 0)
(1.01617 0.0547361 0)
(1.01056 0.0466732 0)
(1.00576 0.0392277 0)
(1.00175 0.0323263 0)
(0.998505 0.0258981 0)
(0.995999 0.0198739 0)
(0.994212 0.0141858 0)
(0.993123 0.00876648 0)
(0.992714 0.00354807 0)
(0.992973 -0.00153916 0)
(0.993887 -0.00656835 0)
(0.995452 -0.0116179 0)
(0.997664 -0.0167735 0)
(1.00052 -0.0221311 0)
(1.00403 -0.0277991 0)
(1.00817 -0.0339019 0)
(1.01295 -0.0405824 0)
(1.01835 -0.0480044 0)
(1.02432 -0.0563527 0)
(1.0308 -0.0658304 0)
(1.03767 -0.0766504 0)
(1.04475 -0.0890177 0)
(1.05181 -0.103101 0)
(1.05851 -0.118992 0)
(1.06449 -0.136649 0)
(1.06931 -0.155849 0)
(1.07262 -0.176158 0)
(1.00193 0.0374794 0)
(1.01223 0.106746 0)
(1.03212 0.165479 0)
(1.05656 0.211133 0)
(1.08152 0.243324 0)
(1.10441 0.263052 0)
(1.1236 0.2721 0)
(1.13833 0.272564 0)
(1.14845 0.266517 0)
(1.15429 0.255807 0)
(1.1564 0.24198 0)
(1.15545 0.226258 0)
(1.15211 0.209575 0)
(1.14699 0.192612 0)
(1.14063 0.17585 0)
(1.13351 0.159614 0)
(1.12599 0.14411 0)
(1.11837 0.129457 0)
(1.11087 0.115713 0)
(1.10368 0.10289 0)
(1.09691 0.0909698 0)
(1.09065 0.0799149 0)
(1.08498 0.069674 0)
(1.07991 0.0601875 0)
(1.07548 0.0513913 0)
(1.07169 0.0432188 0)
(1.06855 0.0356024 0)
(1.06605 0.0284742 0)
(1.06418 0.0217661 0)
(1.06293 0.0154102 0)
(1.06229 0.00933777 0)
(1.06225 0.003479 0)
(1.0628 -0.00223829 0)
(1.06393 -0.00788974 0)
(1.06565 -0.0135559 0)
(1.06793 -0.019324 0)
(1.07079 -0.0252899 0)
(1.0742 -0.0315597 0)
(1.07816 -0.0382521 0)
(1.08264 -0.0454995 0)
(1.08761 -0.0534485 0)
(1.09301 -0.0622582 0)
(1.09876 -0.0720956 0)
(1.10474 -0.0831262 0)
(1.11076 -0.0954982 0)
(1.1166 -0.109319 0)
(1.122 -0.124625 0)
(1.12663 -0.141347 0)
(1.13019 -0.15928 0)
(1.1324 -0.178073 0)
(1.00154 0.0319029 0)
(1.01014 0.091992 0)
(1.02733 0.14458 0)
(1.04939 0.187339 0)
(1.07314 0.219451 0)
(1.09635 0.241188 0)
(1.1174 0.253556 0)
(1.13529 0.257967 0)
(1.14958 0.255969 0)
(1.16022 0.249059 0)
(1.16747 0.238575 0)
(1.17173 0.225647 0)
(1.17349 0.211191 0)
(1.17323 0.195919 0)
(1.1714 0.18037 0)
(1.16844 0.164938 0)
(1.1647 0.149898 0)
(1.16047 0.135436 0)
(1.15601 0.121666 0)
(1.15151 0.108651 0)
(1.14712 0.0964139 0)
(1.14296 0.0849504 0)
(1.13912 0.0742361 0)
(1.13567 0.0642323 0)
(1.13264 0.0548908 0)
(1.13008 0.046157 0)
(1.128 0.0379718 0)
(1.12641 0.0302732 0)
(1.12533 0.0229972 0)
(1.12474 0.016078 0)
(1.12466 0.00944802 0)
(1.12508 0.00303768 0)
(1.12599 -0.00322531 0)
(1.1274 -0.00941678 0)
(1.12929 -0.0156171 0)
(1.13167 -0.0219125 0)
(1.13452 -0.0283962 0)
(1.13784 -0.0351696 0)
(1.14159 -0.0423433 0)
(1.14575 -0.0500375 0)
(1.15028 -0.0583807 0)
(1.15511 -0.0675076 0)
(1.16014 -0.0775535 0)
(1.16525 -0.0886454 0)
(1.17029 -0.100889 0)
(1.17505 -0.114348 0)
(1.17929 -0.129028 0)
(1.18278 -0.144847 0)
(1.18526 -0.161626 0)
(1.18653 -0.179081 0)
(1.00126 0.0272578 0)
(1.00854 0.0793602 0)
(1.0235 0.126087 0)
(1.04334 0.165412 0)
(1.06559 0.196363 0)
(1.08837 0.21879 0)
(1.1102 0.233176 0)
(1.13002 0.240414 0)
(1.14719 0.241611 0)
(1.16144 0.23793 0)
(1.17278 0.230479 0)
(1.1814 0.22025 0)
(1.18759 0.208093 0)
(1.1917 0.194703 0)
(1.19408 0.180637 0)
(1.19509 0.166323 0)
(1.19504 0.152082 0)
(1.19422 0.138148 0)
(1.19285 0.12468 0)
(1.19116 0.111783 0)
(1.18929 0.0995177 0)
(1.18739 0.0879118 0)
(1.18556 0.076967 0)
(1.18389 0.0666661 0)
(1.18244 0.0569785 0)
(1.18126 0.047863 0)
(1.18039 0.0392713 0)
(1.17985 0.0311492 0)
(1.17967 0.0234388 0)
(1.17986 0.0160787 0)
(1.18042 0.0090043 0)
(1.18138 0.00214848 0)
(1.18271 -0.00455921 0)
(1.18444 -0.0111927 0)
(1.18656 -0.0178303 0)
(1.18905 -0.024555 0)
(1.19191 -0.0314554 0)
(1.19514 -0.0386265 0)
(1.19869 -0.0461694 0)
(1.20253 -0.0541913 0)
(1.20662 -0.0628034 0)
(1.21089 -0.0721183 0)
(1.21524 -0.0822444 0)
(1.21956 -0.0932781 0)
(1.2237 -0.105293 0)
(1.22748 -0.118325 0)
(1.23072 -0.13236 0)
(1.23321 -0.147317 0)
(1.23477 -0.163039 0)
(1.23523 -0.179298 0)
(1.00105 0.023324 0)
(1.0073 0.0684332 0)
(1.02042 0.109673 0)
(1.03827 0.145329 0)
(1.05893 0.174416 0)
(1.08087 0.196565 0)
(1.10278 0.211919 0)
(1.12361 0.220998 0)
(1.14267 0.224559 0)
(1.15953 0.223472 0)
(1.17403 0.218623 0)
(1.18618 0.210849 0)
(1.1961 0.200904 0)
(1.20401 0.189435 0)
(1.21017 0.176982 0)
(1.21483 0.163981 0)
(1.21827 0.150775 0)
(1.22072 0.137626 0)
(1.2224 0.124728 0)
(1.2235 0.112216 0)
(1.2242 0.100182 0)
(1.22462 0.08868 0)
(1.22489 0.0777365 0)
(1.2251 0.0673547 0)
(1.22533 0.057521 0)
(1.22563 0.0482084 0)
(1.22607 0.0393801 0)
(1.22668 0.0309913 0)
(1.2275 0.0229912 0)
(1.22853 0.0153244 0)
(1.22982 0.00793122 0)
(1.23136 0.00074832 0)
(1.23318 -0.0062911 0)
(1.23527 -0.0132575 0)
(1.23763 -0.0202251 0)
(1.24026 -0.0272724 0)
(1.24316 -0.034482 0)
(1.2463 -0.0419411 0)
(1.24966 -0.0497408 0)
(1.25321 -0.0579752 0)
(1.25689 -0.0667397 0)
(1.26063 -0.0761273 0)
(1.26435 -0.0862244 0)
(1.26794 -0.0971032 0)
(1.27127 -0.108814 0)
(1.27419 -0.121375 0)
(1.27655 -0.13476 0)
(1.27818 -0.148894 0)
(1.27892 -0.163641 0)
(1.27867 -0.178817 0)
(1.00089 0.0199443 0)
(1.00633 0.0588858 0)
(1.01792 0.0950372 0)
(1.03402 0.126967 0)
(1.05314 0.153755 0)
(1.07404 0.174933 0)
(1.09558 0.190437 0)
(1.1168 0.200528 0)
(1.137 0.205698 0)
(1.15567 0.206574 0)
(1.17252 0.203844 0)
(1.18743 0.198193 0)
(1.20041 0.190265 0)
(1.21155 0.18064 0)
(1.221 0.169819 0)
(1.22894 0.158223 0)
(1.23556 0.146199 0)
(1.24107 0.134018 0)
(1.24564 0.121894 0)
(1.24946 0.109983 0)
(1.25266 0.0984006 0)
(1.25539 0.0872213 0)
(1.25776 0.0764912 0)
(1.25988 0.0662317 0)
(1.26182 0.0564447 0)
(1.26367 0.0471168 0)
(1.26547 0.0382226 0)
(1.26728 0.0297268 0)
(1.26914 0.0215869 0)
(1.27108 0.0137542 0)
(1.27313 0.0061748 0)
(1.2753 -0.00120928 0)
(1.27763 -0.00846005 0)
(1.2801 -0.0156431 0)
(1.28274 -0.0228276 0)
(1.28553 -0.0300861 0)
(1.28848 -0.0374943 0)
(1.29156 -0.045131 0)
(1.29475 -0.0530772 0)
(1.29802 -0.0614146 0)
(1.30132 -0.070224 0)
(1.30458 -0.0795818 0)
(1.30772 -0.0895561 0)
(1.31065 -0.100201 0)
(1.31326 -0.11155 0)
(1.31542 -0.123608 0)
(1.317 -0.136345 0)
(1.31787 -0.149691 0)
(1.31791 -0.163532 0)
(1.31702 -0.177715 0)
(1.00077 0.0170027 0)
(1.00555 0.0504613 0)
(1.01588 0.0819092 0)
(1.03048 0.110162 0)
(1.04816 0.134397 0)
(1.06794 0.15412 0)
(1.08886 0.16915 0)
(1.11006 0.179578 0)
(1.13085 0.185701 0)
(1.15069 0.187956 0)
(1.16924 0.186861 0)
(1.18628 0.18296 0)
(1.2017 0.176791 0)
(1.21551 0.168855 0)
(1.22775 0.159601 0)
(1.23854 0.149421 0)
(1.24801 0.138646 0)
(1.25629 0.127547 0)
(1.26354 0.116342 0)
(1.26989 0.1052 0)
(1.27548 0.094248 0)
(1.28043 0.0835769 0)
(1.28485 0.0732471 0)
(1.28884 0.0632943 0)
(1.29249 0.0537336 0)
(1.29586 0.0445632 0)
(1.29903 0.0357683 0)
(1.30205 0.0273229 0)
(1.30497 0.0191926 0)
(1.30783 0.0113359 0)
(1.31066 0.00370535 0)
(1.31349 -0.00375107 0)
(1.31633 -0.0110897 0)
(1.31921 -0.0183703 0)
(1.32214 -0.0256561 0)
(1.3251 -0.033013 0)
(1.32811 -0.0405094 0)
(1.33115 -0.0482154 0)
(1.33419 -0.0562018 0)
(1.33721 -0.0645391 0)
(1.34015 -0.0732948 0)
(1.34297 -0.0825314 0)
(1.34559 -0.0923021 0)
(1.34793 -0.102647 0)
(1.3499 -0.113586 0)
(1.35138 -0.125118 0)
(1.35228 -0.137211 0)
(1.35248 -0.149801 0)
(1.35189 -0.162792 0)
(1.35043 -0.176055 0)
(1.00067 0.0144113 0)
(1.00492 0.042955 0)
(1.01421 0.0700539 0)
(1.02752 0.0947359 0)
(1.04391 0.116284 0)
(1.06259 0.134223 0)
(1.08277 0.148315 0)
(1.10367 0.158543 0)
(1.12467 0.165068 0)
(1.14522 0.168182 0)
(1.16495 0.168264 0)
(1.18356 0.165739 0)
(1.20089 0.16104 0)
(1.21685 0.154591 0)
(1.23143 0.146784 0)
(1.24465 0.137968 0)
(1.25659 0.128451 0)
(1.26733 0.118489 0)
(1.27699 0.108297 0)
(1.28566 0.0980434 0)
(1.29345 0.0878618 0)
(1.30048 0.077851 0)
(1.30683 0.0680809 0)
(1.3126 0.058597 0)
(1.31788 0.0494244 0)
(1.32274 0.040571 0)
(1.32724 0.0320307 0)
(1.33144 0.0237859 0)
(1.3354 0.0158097 0)
(1.33916 0.0080677 0)
(1.34276 0.000519091 0)
(1.34623 -0.00688196 0)
(1.34959 -0.0141856 0)
(1.35287 -0.0214454 0)
(1.35608 -0.028718 0)
(1.35922 -0.0360624 0)
(1.3623 -0.0435392 0)
(1.3653 -0.0512099 0)
(1.36821 -0.0591359 0)
(1.37099 -0.067377 0)
(1.37362 -0.0759893 0)
(1.37604 -0.0850232 0)
(1.37818 -0.09452 0)
(1.37999 -0.104508 0)
(1.38138 -0.115001 0)
(1.38226 -0.125989 0)
(1.38255 -0.137442 0)
(1.38215 -0.149302 0)
(1.381 -0.161487 0)
(1.37904 -0.173891 0)
(1.0006 0.0121016 0)
(1.00441 0.0362005 0)
(1.01285 0.0592673 0)
(1.02506 0.0805093 0)
(1.04031 0.0993167 0)
(1.05797 0.115254 0)
(1.07736 0.128068 0)
(1.09782 0.137678 0)
(1.11877 0.144153 0)
(1.13969 0.14768 0)
(1.16019 0.148528 0)
(1.17994 0.147021 0)
(1.19872 0.143502 0)
(1.21639 0.138318 0)
(1.23286 0.131803 0)
(1.24811 0.124261 0)
(1.26216 0.115965 0)
(1.27503 0.107152 0)
(1.28679 0.0980211 0)
(1.29753 0.0887364 0)
(1.30731 0.0794285 0)
(1.31622 0.0701981 0)
(1.32435 0.0611192 0)
(1.33177 0.052243 0)
(1.33857 0.0436009 0)
(1.34481 0.0352077 0)
(1.35056 0.0270641 0)
(1.35588 0.0191593 0)
(1.36082 0.0114733 0)
(1.36544 0.00397785 0)
(1.36977 -0.00336136 0)
(1.37385 -0.010584 0)
(1.3777 -0.0177339 0)
(1.38136 -0.0248583 0)
(1.38484 -0.0320072 0)
(1.38815 -0.0392323 0)
(1.39128 -0.0465867 0)
(1.39425 -0.0541235 0)
(1.39703 -0.0618952 0)
(1.3996 -0.0699518 0)
(1.40193 -0.0783396 0)
(1.40398 -0.0870984 0)
(1.4057 -0.09626 0)
(1.40702 -0.105844 0)
(1.40789 -0.115857 0)
(1.40823 -0.126287 0)
(1.40797 -0.137104 0)
(1.40704 -0.148256 0)
(1.40538 -0.159673 0)
(1.40295 -0.171265 0)
(1.00054 0.0100187 0)
(1.00401 0.0300606 0)
(1.01173 0.0493716 0)
(1.02303 0.0673117 0)
(1.0373 0.083372 0)
(1.05403 0.0971702 0)
(1.07265 0.10846 0)
(1.0926 0.117132 0)
(1.11335 0.123196 0)
(1.13441 0.126763 0)
(1.15538 0.128021 0)
(1.17592 0.127208 0)
(1.19578 0.124591 0)
(1.21477 0.120451 0)
(1.23275 0.115059 0)
(1.24966 0.108677 0)
(1.26545 0.101538 0)
(1.28012 0.0938525 0)
(1.29369 0.0858002 0)
(1.30621 0.0775317 0)
(1.31773 0.0691698 0)
(1.32831 0.0608113 0)
(1.33802 0.0525294 0)
(1.34692 0.0443766 0)
(1.35508 0.0363871 0)
(1.36258 0.0285795 0)
(1.36947 0.0209595 0)
(1.3758 0.0135212 0)
(1.38164 0.00624997 0)
(1.38704 -0.000876737 0)
(1.39204 -0.00788759 0)
(1.39667 -0.0148163 0)
(1.40097 -0.0217008 0)
(1.40496 -0.0285818 0)
(1.40868 -0.0355028 0)
(1.41213 -0.0425085 0)
(1.41531 -0.0496445 0)
(1.41823 -0.0569561 0)
(1.42088 -0.0644872 0)
(1.42325 -0.0722794 0)
(1.4253 -0.0803698 0)
(1.427 -0.0887899 0)
(1.42832 -0.0975629 0)
(1.4292 -0.106702 0)
(1.42959 -0.116208 0)
(1.42944 -0.126068 0)
(1.42868 -0.136253 0)
(1.42727 -0.146716 0)
(1.42515 -0.157395 0)
(1.42228 -0.168215 0)
(1.00049 0.00811793 0)
(1.00368 0.0244201 0)
(1.01084 0.0402114 0)
(1.02138 0.0549823 0)
(1.03481 0.0683179 0)
(1.05073 0.0798939 0)
(1.06865 0.0894874 0)
(1.08808 0.0969798 0)
(1.10854 0.102348 0)
(1.12958 0.105653 0)
(1.15081 0.107018 0)
(1.17188 0.106618 0)
(1.19252 0.104655 0)
(1.2125 0.101347 0)
(1.23166 0.0969139 0)
(1.24988 0.091568 0)
(1.26708 0.0855069 0)
(1.28323 0.0789083 0)
(1.29831 0.0719282 0)
(1.31233 0.0646992 0)
(1.32532 0.0573311 0)
(1.33733 0.0499121 0)
(1.34839 0.04251 0)
(1.35857 0.0351747 0)
(1.36793 0.0279401 0)
(1.37652 0.0208259 0)
(1.3844 0.01384 0)
(1.39162 0.00698005 0)
(1.39825 0.000235172 0)
(1.40432 -0.00641255 0)
(1.40989 -0.0129869 0)
(1.415 -0.0195162 0)
(1.41968 -0.0260326 0)
(1.42396 -0.0325711 0)
(1.42786 -0.0391686 0)
(1.43141 -0.0458632 0)
(1.43461 -0.0526932 0)
(1.43746 -0.0596967 0)
(1.43997 -0.0669099 0)
(1.44212 -0.0743663 0)
(1.4439 -0.0820954 0)
(1.44528 -0.090121 0)
(1.44622 -0.0984597 0)
(1.44668 -0.107119 0)
(1.44664 -0.116097 0)
(1.44603 -0.125377 0)
(1.44481 -0.134932 0)
(1.44295 -0.144721 0)
(1.4404 -0.154689 0)
(1.43714 -0.164771 0)
(1.00045 0.00636202 0)
(1.00342 0.0191803 0)
(1.01012 0.0316487 0)
(1.02005 0.0433709 0)
(1.0328 0.054018 0)
(1.04803 0.0633255 0)
(1.06534 0.0711032 0)
(1.08428 0.0772386 0)
(1.10443 0.0816933 0)
(1.12537 0.0844943 0)
(1.14671 0.0857225 0)
(1.16811 0.0854993 0)
(1.18929 0.083974 0)
(1.20999 0.0813117 0)
(1.23003 0.0776832 0)
(1.24926 0.0732562 0)
(1.26757 0.0681893 0)
(1.28489 0.0626276 0)
(1.30118 0.0566998 0)
(1.31642 0.0505171 0)
(1.33061 0.0441723 0)
(1.34379 0.037741 0)
(1.35597 0.0312822 0)
(1.36722 0.0248397 0)
(1.37756 0.018444 0)
(1.38705 0.0121134 0)
(1.39575 0.00585592 0)
(1.40371 -0.000329299 0)
(1.41098 -0.00645055 0)
(1.41761 -0.0125224 0)
(1.42365 -0.0185645 0)
(1.42913 -0.0246005 0)
(1.4341 -0.0306576 0)
(1.43859 -0.0367649 0)
(1.44262 -0.0429535 0)
(1.44621 -0.0492551 0)
(1.44938 -0.0557015 0)
(1.45214 -0.0623236 0)
(1.45449 -0.0691508 0)
(1.45642 -0.0762093 0)
(1.45792 -0.0835218 0)
(1.45897 -0.0911056 0)
(1.45955 -0.0989715 0)
(1.45962 -0.107123 0)
(1.45916 -0.115553 0)
(1.45812 -0.124246 0)
(1.45648 -0.133176 0)
(1.4542 -0.142305 0)
(1.45125 -0.151584 0)
(1.44761 -0.160957 0)
(1.00042 0.00471892 0)
(1.00323 0.014255 0)
(1.00957 0.0235597 0)
(1.01902 0.0323365 0)
(1.03123 0.0403357 0)
(1.0459 0.0473524 0)
(1.06269 0.0532342 0)
(1.08121 0.0578849 0)
(1.10106 0.061263 0)
(1.12185 0.0633761 0)
(1.14322 0.0642737 0)
(1.16481 0.0640377 0)
(1.18634 0.0627733 0)
(1.20755 0.0605999 0)
(1.22823 0.0576436 0)
(1.2482 0.0540301 0)
(1.26734 0.0498799 0)
(1.28554 0.0453046 0)
(1.30274 0.0404039 0)
(1.31892 0.0352648 0)
(1.33404 0.0299605 0)
(1.34812 0.0245511 0)
(1.36118 0.0190835 0)
(1.37325 0.0135929 0)
(1.38435 0.00810366 0)
(1.39455 0.00263042 0)
(1.40388 -0.00282051 0)
(1.41241 -0.00825008 0)
(1.42016 -0.0136654 0)
(1.42721 -0.0190787 0)
(1.43358 -0.0245065 0)
(1.43932 -0.0299686 0)
(1.44448 -0.0354872 0)
(1.44909 -0.0410868 0)
(1.45316 -0.0467926 0)
(1.45674 -0.0526306 0)
(1.45983 -0.0586263 0)
(1.46245 -0.0648043 0)
(1.46461 -0.0711874 0)
(1.46629 -0.0777957 0)
(1.4675 -0.0846453 0)
(1.46822 -0.0917482 0)
(1.46844 -0.09911 0)
(1.46813 -0.10673 0)
(1.46727 -0.1146 0)
(1.46583 -0.122702 0)
(1.46378 -0.131011 0)
(1.46111 -0.139493 0)
(1.45778 -0.148103 0)
(1.45379 -0.156792 0)
(1.0004 0.00316053 0)
(1.00308 0.00956739 0)
(1.00917 0.0158315 0)
(1.01826 0.0217462 0)
(1.03006 0.0271358 0)
(1.04431 0.0318538 0)
(1.0607 0.0357887 0)
(1.07888 0.0388668 0)
(1.09847 0.041052 0)
(1.11911 0.0423424 0)
(1.14044 0.0427657 0)
(1.16213 0.042373 0)
(1.18387 0.041233 0)
(1.20541 0.0394254 0)
(1.2265 0.0370356 0)
(1.24698 0.0341498 0)
(1.26668 0.0308516 0)
(1.2855 0.0272186 0)
(1.30336 0.0233209 0)
(1.32019 0.0192195 0)
(1.33597 0.0149661 0)
(1.35069 0.0106027 0)
(1.36436 0.00616219 0)
(1.377 0.00166886 0)
(1.38864 -0.00286101 0)
(1.39932 -0.00741821 0)
(1.40909 -0.0119998 0)
(1.41798 -0.0166082 0)
(1.42605 -0.0212505 0)
(1.43335 -0.0259376 0)
(1.43992 -0.0306834 0)
(1.4458 -0.0355046 0)
(1.45103 -0.0404194 0)
(1.45565 -0.0454475 0)
(1.45969 -0.0506093 0)
(1.46317 -0.055925 0)
(1.46612 -0.0614147 0)
(1.46855 -0.0670969 0)
(1.47047 -0.0729886 0)
(1.47188 -0.0791039 0)
(1.47278 -0.0854538 0)
(1.47316 -0.0920448 0)
(1.47302 -0.0988786 0)
(1.47233 -0.105951 0)
(1.47107 -0.113251 0)
(1.46924 -0.120761 0)
(1.46681 -0.128456 0)
(1.46375 -0.136303 0)
(1.46007 -0.144265 0)
(1.45573 -0.152294 0)
(1.00039 0.00166152 0)
(1.00299 0.00504709 0)
(1.0089 0.00835898 0)
(1.01776 0.0114736 0)
(1.02928 0.0142851 0)
(1.04324 0.0167045 0)
(1.05935 0.0186627 0)
(1.07728 0.0201124 0)
(1.09668 0.0210283 0)
(1.11719 0.0214056 0)
(1.13846 0.0212566 0)
(1.16017 0.0206081 0)
(1.18201 0.0194973 0)
(1.20372 0.0179687 0)
(1.22505 0.0160702 0)
(1.24582 0.0138506 0)
(1.26586 0.0113574 0)
(1.28504 0.00863477 0)
(1.30327 0.00572221 0)
(1.32049 0.00265404 0)
(1.33665 -0.000541136 0)
(1.35175 -0.00384054 0)
(1.36577 -0.00722705 0)
(1.37873 -0.0106889 0)
(1.39067 -0.0142193 0)
(1.40161 -0.0178158 0)
(1.41159 -0.0214799 0)
(1.42066 -0.0252167 0)
(1.42886 -0.0290341 0)
(1.43624 -0.0329422 0)
(1.44285 -0.0369534 0)
(1.44873 -0.0410814 0)
(1.45391 -0.0453411 0)
(1.45844 -0.0497479 0)
(1.46234 -0.0543174 0)
(1.46565 -0.0590651 0)
(1.46839 -0.0640054 0)
(1.47057 -0.0691517 0)
(1.47221 -0.0745154 0)
(1.4733 -0.0801056 0)
(1.47387 -0.0859281 0)
(1.47389 -0.091985 0)
(1.47338 -0.098274 0)
(1.4723 -0.104788 0)
(1.47066 -0.111514 0)
(1.46845 -0.118434 0)
(1.46563 -0.125524 0)
(1.46221 -0.132752 0)
(1.45818 -0.140083 0)
(1.45352 -0.147475 0)
(1.00038 0.000198385 0)
(1.00294 0.000628412 0)
(1.00876 0.00104268 0)
(1.01749 0.0013967 0)
(1.02887 0.00165232 0)
(1.04267 0.00177697 0)
(1.05862 0.00174473 0)
(1.07641 0.00153703 0)
(1.09568 0.00114255 0)
(1.1161 0.000556706 0)
(1.13731 -0.000219309 0)
(1.159 -0.00117961 0)
(1.18085 -0.00231489 0)
(1.2026 -0.00361362 0)
(1.224 -0.00506316 0)
(1.24485 -0.00665079 0)
(1.265 -0.00836446 0)
(1.2843 -0.0101934 0)
(1.30265 -0.0121287 0)
(1.32 -0.0141633 0)
(1.33628 -0.0162925 0)
(1.35148 -0.0185135 0)
(1.36559 -0.020826 0)
(1.37862 -0.0232317 0)
(1.39061 -0.0257339 0)
(1.40157 -0.028338 0)
(1.41155 -0.0310507 0)
(1.42059 -0.0338802 0)
(1.42873 -0.0368357 0)
(1.43603 -0.0399276 0)
(1.44251 -0.0431666 0)
(1.44824 -0.0465642 0)
(1.45325 -0.050132 0)
(1.45757 -0.0538817 0)
(1.46124 -0.0578245 0)
(1.46428 -0.0619712 0)
(1.46673 -0.0663314 0)
(1.4686 -0.0709136 0)
(1.4699 -0.075724 0)
(1.47065 -0.080767 0)
(1.47085 -0.0860439 0)
(1.4705 -0.0915528 0)
(1.46959 -0.097288 0)
(1.46813 -0.10324 0)
(1.46611 -0.109393 0)
(1.46351 -0.11573 0)
(1.46032 -0.122224 0)
(1.45655 -0.128849 0)
(1.45217 -0.135569 0)
(1.4472 -0.142348 0)
(1.00038 -0.0012513 0)
(1.00293 -0.00375182 0)
(1.00874 -0.0062137 0)
(1.01746 -0.0086036 0)
(1.02882 -0.0108928 0)
(1.04259 -0.0130577 0)
(1.05852 -0.0150806 0)
(1.07627 -0.016951 0)
(1.0955 -0.0186651 0)
(1.11586 -0.0202258 0)
(1.13702 -0.021642 0)
(1.15864 -0.0229275 0)
(1.18042 -0.0240999 0)
(1.20208 -0.0251794 0)
(1.2234 -0.0261883 0)
(1.24416 -0.0271494 0)
(1.26419 -0.0280859 0)
(1.28337 -0.0290202 0)
(1.3016 -0.029974 0)
(1.3188 -0.0309679 0)
(1.33494 -0.0320211 0)
(1.34997 -0.0331514 0)
(1.36391 -0.0343754 0)
(1.37677 -0.0357084 0)
(1.38855 -0.0371645 0)
(1.3993 -0.0387568 0)
(1.40906 -0.0404978 0)
(1.41786 -0.0423989 0)
(1.42575 -0.044471 0)
(1.43278 -0.0467244 0)
(1.43899 -0.049169 0)
(1.44442 -0.0518139 0)
(1.44911 -0.0546679 0)
(1.45311 -0.0577391 0)
(1.45644 -0.0610346 0)
(1.45914 -0.0645608 0)
(1.46122 -0.0683228 0)
(1.46272 -0.0723243 0)
(1.46363 -0.0765673 0)
(1.46399 -0.0810514 0)
(1.46379 -0.0857739 0)
(1.46304 -0.0907295 0)
(1.46173 -0.0959092 0)
(1.45987 -0.101301 0)
(1.45746 -0.106888 0)
(1.45448 -0.112651 0)