/*--------------------------------*- C++ -*----------------------------------*\
| =========                 |                                                 |
| \\      /  F ield         | OpenFOAM: The Open Source CFD Toolbox           |
|  \\    /   O peration     | Version:  2306                                  |
|   \\  /    A nd           | Website:  www.openfoam.com                      |
|    \\/     M anipulation  |                                                 |
\*---------------------------------------------------------------------------*/
FoamFile
{
    version     2.0;
    format      ascii;
    arch        "LSB;label=32;scalar=64";
    class       volVectorField;
    location    "1.01";
    object      U;
}
// * * * * * * * * * * * * * * * * * * * * * * * * * * * * * * * * * * * * * //

dimensions      [0 1 -1 0 0 0 0];

internalField   nonuniform List<vector> 
47500
(
(0.708058 0.141126 0)
(0.605107 0.126852 0)
(0.442238 0.0756733 0)
(0.323205 0.0428889 0)
(0.252628 0.0249084 0)
(0.207935 0.0151468 0)
(0.177257 0.00977788 0)
(0.155189 0.00671789 0)
(0.138693 0.0048735 0)
(0.125941 0.00368955 0)
(0.115823 0.00288365 0)
(0.107638 0.00230732 0)
(0.100916 0.00187862 0)
(0.0953319 0.00154969 0)
(0.0906513 0.00129107 0)
(0.0867007 0.00108369 0)
(0.0833487 0.000914678 0)
(0.0804939 0.000775022 0)
(0.0780565 0.000658254 0)
(0.0759732 0.000559604 0)
(0.0741926 0.000475484 0)
(0.0726731 0.000403147 0)
(0.0713804 0.000340453 0)
(0.0702861 0.000285709 0)
(0.0693666 0.000237557 0)
(0.0686021 0.000194889 0)
(0.0679761 0.000156789 0)
(0.067475 0.000122489 0)
(0.0670872 9.13324e-05 0)
(0.0668033 6.27478e-05 0)
(0.0666158 3.62269e-05 0)
(0.0665189 1.13053e-05 0)
(0.0665082 -1.24539e-05 0)
(0.0665812 -3.54792e-05 0)
(0.0667367 -5.82102e-05 0)
(0.0669758 -8.11222e-05 0)
(0.0673014 -0.000104761 0)
(0.0677193 -0.0001298 0)
(0.0682388 -0.000157136 0)
(0.0688745 -0.000188107 0)
(0.0696482 -0.00022498 0)
(0.0705946 -0.000272211 0)
(0.07177 -0.000339829 0)
(0.0732744 -0.000452787 0)
(0.0752968 -0.000676754 0)
(0.0782131 -0.00118823 0)
(0.082893 -0.0024705 0)
(0.0917677 -0.00591928 0)
(0.110505 -0.0158013 0)
(0.145422 -0.0449139 0)
(0.990012 0.273751 0)
(0.981277 0.298007 0)
(0.863903 0.21609 0)
(0.734143 0.146999 0)
(0.62832 0.100193 0)
(0.545477 0.069771 0)
(0.48066 0.0501601 0)
(0.429787 0.0373105 0)
(0.389455 0.0286159 0)
(0.357039 0.022513 0)
(0.330632 0.0180773 0)
(0.308863 0.0147523 0)
(0.290735 0.0121935 0)
(0.275509 0.0101803 0)
(0.262635 0.0085666 0)
(0.251688 0.00725243 0)
(0.242341 0.00616761 0)
(0.234337 0.00526149 0)
(0.22747 0.00449676 0)
(0.221573 0.00384536 0)
(0.216513 0.00328585 0)
(0.212178 0.00280153 0)
(0.208476 0.00237925 0)
(0.205329 0.00200846 0)
(0.202675 0.00168062 0)
(0.200459 0.00138865 0)
(0.198636 0.00112667 0)
(0.197168 0.000889633 0)
(0.196023 0.0006732 0)
(0.195177 0.000473505 0)
(0.194608 0.000287029 0)
(0.194302 0.000110457 0)
(0.194245 -5.94613e-05 0)
(0.194434 -0.000226072 0)
(0.194866 -0.000393018 0)
(0.195546 -0.000564512 0)
(0.196486 -0.000745744 0)
(0.197708 -0.000943516 0)
(0.199245 -0.00116732 0)
(0.201147 -0.00143123 0)
(0.203492 -0.00175752 0)
(0.206397 -0.00218382 0)
(0.210046 -0.0027781 0)
(0.214732 -0.00367145 0)
(0.220934 -0.0051311 0)
(0.229437 -0.00772106 0)
(0.241555 -0.0126522 0)
(0.25959 -0.022591 0)
(0.286458 -0.0434282 0)
(0.320502 -0.0855627 0)
(1.02873 0.230537 0)
(1.06518 0.337273 0)
(1.02857 0.307935 0)
(0.952112 0.249931 0)
(0.866774 0.194722 0)
(0.785961 0.15009 0)
(0.714441 0.116323 0)
(0.653202 0.091316 0)
(0.601486 0.0727586 0)
(0.557967 0.0588158 0)
(0.521294 0.0481663 0)
(0.490281 0.0398887 0)
(0.463943 0.0333449 0)
(0.44148 0.0280902 0)
(0.422248 0.0238108 0)
(0.40573 0.0202814 0)
(0.391508 0.0173378 0)
(0.379242 0.0148578 0)
(0.368653 0.0127495 0)
(0.359514 0.0109424 0)
(0.351633 0.00938179 0)
(0.344852 0.00802447 0)
(0.339038 0.00683599 0)
(0.334079 0.00578846 0)
(0.329881 0.00485901 0)
(0.326363 0.00402861 0)
(0.323459 0.00328121 0)
(0.32111 0.00260303 0)
(0.319271 0.00198197 0)
(0.317902 0.00140725 0)
(0.316973 0.000868875 0)
(0.31646 0.000357339 0)
(0.316346 -0.000136841 0)
(0.316624 -0.000623586 0)
(0.317292 -0.00111387 0)
(0.318361 -0.00162056 0)
(0.319849 -0.00215967 0)
(0.321793 -0.00275224 0)
(0.324245 -0.00342745 0)
(0.327286 -0.00422769 0)
(0.331032 -0.00521749 0)
(0.335653 -0.00649915 0)
(0.341398 -0.00824128 0)
(0.348631 -0.0107312 0)
(0.357871 -0.0144714 0)
(0.369837 -0.0203484 0)
(0.385442 -0.0299046 0)
(0.405657 -0.0457428 0)
(0.430533 -0.0719347 0)
(0.456216 -0.11267 0)
(1.02485 0.170713 0)
(1.0701 0.31458 0)
(1.08052 0.338862 0)
(1.05259 0.311341 0)
(1.00162 0.267049 0)
(0.941437 0.222039 0)
(0.880405 0.182511 0)
(0.822876 0.149853 0)
(0.770721 0.123532 0)
(0.724425 0.102475 0)
(0.683787 0.0855988 0)
(0.648316 0.0719867 0)
(0.617433 0.0609115 0)
(0.590565 0.0518146 0)
(0.567191 0.0442712 0)
(0.54685 0.0379584 0)
(0.529144 0.0326297 0)
(0.513732 0.0280955 0)
(0.500325 0.0242084 0)
(0.488675 0.0208528 0)
(0.478571 0.017937 0)
(0.469833 0.0153875 0)
(0.462307 0.0131446 0)
(0.455861 0.0111596 0)
(0.450384 0.00939172 0)
(0.445778 0.007807 0)
(0.441961 0.0063763 0)
(0.438865 0.00507439 0)
(0.436431 0.003879 0)
(0.434611 0.00276997 0)
(0.433367 0.00172853 0)
(0.43267 0.000736609 0)
(0.4325 -0.000223941 0)
(0.432847 -0.00117225 0)
(0.43371 -0.00212955 0)
(0.435102 -0.00312075 0)
(0.437049 -0.00417663 0)
(0.439593 -0.00533718 0)
(0.442799 -0.00665669 0)
(0.44676 -0.00821177 0)
(0.451608 -0.0101142 0)
(0.457521 -0.0125316 0)
(0.464743 -0.0157214 0)
(0.473593 -0.0200841 0)
(0.484469 -0.0262462 0)
(0.497808 -0.0351739 0)
(0.513973 -0.048295 0)
(0.532955 -0.067545 0)
(0.553646 -0.0950885 0)
(0.572634 -0.131801 0)
(1.01676 0.128188 0)
(1.05701 0.275119 0)
(1.08731 0.331706 0)
(1.09071 0.333618 0)
(1.07009 0.308319 0)
(1.03427 0.272656 0)
(0.990736 0.235656 0)
(0.944689 0.201449 0)
(0.899382 0.171492 0)
(0.856629 0.145945 0)
(0.817292 0.124422 0)
(0.781666 0.106361 0)
(0.749722 0.0911945 0)
(0.721266 0.0784164 0)
(0.696027 0.0675993 0)
(0.673711 0.0583919 0)
(0.654028 0.0505099 0)
(0.636705 0.0437237 0)
(0.621492 0.0378479 0)
(0.608167 0.0327324 0)
(0.59653 0.0282549 0)
(0.586406 0.0243152 0)
(0.577641 0.0208302 0)
(0.570101 0.0177308 0)
(0.563666 0.0149587 0)
(0.558236 0.0124642 0)
(0.553723 0.0102043 0)
(0.55005 0.00814151 0)
(0.547154 0.00624209 0)
(0.544983 0.00447536 0)
(0.543494 0.00281246 0)
(0.542654 0.00122538 0)
(0.542442 -0.00031415 0)
(0.542845 -0.00183601 0)
(0.543864 -0.00337331 0)
(0.545511 -0.0049646 0)
(0.547814 -0.00665696 0)
(0.550816 -0.00851035 0)
(0.554584 -0.0106041 0)
(0.559207 -0.0130462 0)
(0.564807 -0.015988 0)
(0.57154 -0.0196442 0)
(0.579597 -0.0243237 0)
(0.589199 -0.0304709 0)
(0.60057 -0.0387169 0)
(0.613863 -0.0499292 0)
(0.629029 -0.0652179 0)
(0.645573 -0.0858176 0)
(0.662172 -0.112678 0)
(0.676365 -0.145438 0)
(1.01072 0.0991317 0)
(1.04301 0.23517 0)
(1.0786 0.307021 0)
(1.09883 0.330721 0)
(1.09974 0.324346 0)
(1.08498 0.301816 0)
(1.05947 0.272329 0)
(1.02763 0.24131 0)
(0.992875 0.211623 0)
(0.957573 0.184563 0)
(0.923249 0.160547 0)
(0.8908 0.139539 0)
(0.860696 0.121295 0)
(0.833129 0.105495 0)
(0.808122 0.0918141 0)
(0.785596 0.079948 0)
(0.765417 0.0696287 0)
(0.747425 0.0606254 0)
(0.731451 0.0527415 0)
(0.717328 0.0458113 0)
(0.704895 0.0396948 0)
(0.694005 0.0342739 0)
(0.684521 0.0294485 0)
(0.676321 0.0251332 0)
(0.669294 0.0212548 0)
(0.663343 0.0177496 0)
(0.658382 0.0145619 0)
(0.654335 0.011642 0)
(0.651139 0.00894527 0)
(0.648741 0.00643014 0)
(0.647096 0.0040574 0)
(0.646173 0.00178869 0)
(0.645946 -0.000414907 0)
(0.646405 -0.00259447 0)
(0.647548 -0.0047953 0)
(0.649385 -0.00706962 0)
(0.651942 -0.00948011 0)
(0.655258 -0.0121049 0)
(0.659391 -0.0150442 0)
(0.664417 -0.0184302 0)
(0.670431 -0.0224397 0)
(0.677546 -0.0273114 0)
(0.685886 -0.0333688 0)
(0.695564 -0.0410445 0)
(0.706645 -0.0509022 0)
(0.719076 -0.0636395 0)
(0.732576 -0.0800355 0)
(0.746492 -0.100792 0)
(0.759649 -0.126196 0)
(0.770389 -0.155531 0)
(1.00696 0.078706 0)
(1.03212 0.199738 0)
(1.0665 0.27624 0)
(1.09406 0.313697 0)
(1.10825 0.322645 0)
(1.10913 0.313168 0)
(1.09906 0.29316 0)
(1.08101 0.26813 0)
(1.0578 0.241583 0)
(1.03173 0.215573 0)
(1.00456 0.191184 0)
(0.977504 0.168898 0)
(0.951359 0.148849 0)
(0.926631 0.130975 0)
(0.9036 0.115118 0)
(0.882401 0.101085 0)
(0.863065 0.0886705 0)
(0.845564 0.0776813 0)
(0.829826 0.0679387 0)
(0.815762 0.0592829 0)
(0.803269 0.0515729 0)
(0.792241 0.0446849 0)
(0.782575 0.0385105 0)
(0.774172 0.0329549 0)
(0.766939 0.0279345 0)
(0.760792 0.0233753 0)
(0.755654 0.0192114 0)
(0.751458 0.0153831 0)
(0.748143 0.0118356 0)
(0.745661 0.00851765 0)
(0.743969 0.00538029 0)
(0.743036 0.00237526 0)
(0.742839 -0.000546503 0)
(0.743364 -0.00343672 0)
(0.744609 -0.00635207 0)
(0.746582 -0.00935702 0)
(0.749302 -0.0125276 0)
(0.7528 -0.0159564 0)
(0.75712 -0.0197586 0)
(0.762316 -0.0240807 0)
(0.768452 -0.029111 0)
(0.775594 -0.0350918 0)
(0.783796 -0.0423327 0)
(0.79308 -0.0512216 0)
(0.803395 -0.0622255 0)
(0.814564 -0.0758669 0)
(0.826213 -0.0926546 0)
(0.837696 -0.11294 0)
(0.848077 -0.136685 0)
(0.856251 -0.16315 0)
(1.00471 0.0639288 0)
(1.02437 0.169812 0)
(1.05518 0.244955 0)
(1.08471 0.289746 0)
(1.1061 0.309619 0)
(1.11748 0.311214 0)
(1.11927 0.300617 0)
(1.11301 0.282689 0)
(1.10064 0.260964 0)
(1.08406 0.237828 0)
(1.06488 0.214795 0)
(1.04438 0.192751 0)
(1.02351 0.17217 0)
(1.00297 0.153253 0)
(0.983223 0.136042 0)
(0.96457 0.12048 0)
(0.947191 0.106463 0)
(0.931181 0.0938619 0)
(0.916571 0.082541 0)
(0.903352 0.0723673 0)
(0.891487 0.0632146 0)
(0.880923 0.0549665 0)
(0.871597 0.0475167 0)
(0.863442 0.0407684 0)
(0.856392 0.0346341 0)
(0.850381 0.0290342 0)
(0.845348 0.0238962 0)
(0.841236 0.019153 0)
(0.837997 0.0147421 0)
(0.835586 0.0106044 0)
(0.833967 0.00668245 0)
(0.833112 0.00291952 0)
(0.832998 -0.000742354 0)
(0.833614 -0.00436414 0)
(0.834954 -0.00801212 0)
(0.837022 -0.0117607 0)
(0.839832 -0.0156961 0)
(0.843402 -0.0199206 0)
(0.847761 -0.0245579 0)
(0.852941 -0.0297601 0)
(0.858972 -0.0357147 0)
(0.865876 -0.0426523 0)
(0.873651 -0.0508523 0)
(0.88225 -0.0606435 0)
(0.891551 -0.072393 0)
(0.901318 -0.0864732 0)
(0.911162 -0.103196 0)
(0.920516 -0.122701 0)
(0.928661 -0.144812 0)
(0.934854 -0.168878 0)
(1.00335 0.0528705 0)
(1.01892 0.144905 0)
(1.04573 0.21562 0)
(1.0745 0.263238 0)
(1.09913 0.290073 0)
(1.11694 0.300134 0)
(1.12715 0.297754 0)
(1.13018 0.286849 0)
(1.12712 0.270593 0)
(1.11929 0.251377 0)
(1.10799 0.230893 0)
(1.09438 0.21028 0)
(1.07941 0.190262 0)
(1.06384 0.171268 0)
(1.04822 0.153522 0)
(1.03298 0.137117 0)
(1.01841 0.122059 0)
(1.00469 0.108301 0)
(0.991944 0.0957671 0)
(0.980244 0.0843664 0)
(0.969616 0.0740015 0)
(0.960059 0.0645746 0)
(0.951554 0.0559908 0)
(0.944072 0.0481597 0)
(0.937574 0.0409961 0)
(0.93202 0.0344199 0)
(0.927368 0.0283562 0)
(0.923576 0.0227341 0)
(0.920608 0.0174862 0)
(0.918429 0.0125477 0)
(0.91701 0.00785511 0)
(0.916327 0.00334486 0)
(0.916363 -0.00104796 0)
(0.917104 -0.00539156 0)
(0.918545 -0.00975954 0)
(0.920687 -0.0142335 0)
(0.923533 -0.0189061 0)
(0.927095 -0.0238847 0)
(0.931383 -0.0292959 0)
(0.936408 -0.0352896 0)
(0.942171 -0.0420442 0)
(0.948659 -0.0497695 0)
(0.955829 -0.0587071 0)
(0.963589 -0.0691252 0)
(0.97178 -0.0813019 0)
(0.980149 -0.0954923 0)
(0.988333 -0.111874 0)
(0.995859 -0.130469 0)
(1.00218 -0.151054 0)
(1.00679 -0.173092 0)
(1.00249 0.0443077 0)
(1.01505 0.124158 0)
(1.03815 0.189092 0)
(1.06495 0.236619 0)
(1.09042 0.267283 0)
(1.11174 0.283267 0)
(1.12753 0.287452 0)
(1.13744 0.282786 0)
(1.14186 0.271909 0)
(1.14155 0.256995 0)
(1.13745 0.239726 0)
(1.13048 0.221343 0)
(1.12148 0.20272 0)
(1.11117 0.184446 0)
(1.10013 0.166898 0)
(1.08884 0.150298 0)
(1.07763 0.134761 0)
(1.06678 0.120326 0)
(1.05647 0.106984 0)
(1.04682 0.0946957 0)
(1.03793 0.0834004 0)
(1.02984 0.0730282 0)
(1.02258 0.0635032 0)
(1.01615 0.0547481 0)
(1.01054 0.0466859 0)
(1.00574 0.0392411 0)
(1.00172 0.0323406 0)
(0.998475 0.0259133 0)
(0.995967 0.01989 0)
(0.994177 0.0142029 0)
(0.993085 0.00878471 0)
(0.992674 0.00356753 0)
(0.992929 -0.00151836 0)
(0.993841 -0.00654608 0)
(0.995403 -0.011594 0)
(0.997611 -0.0167478 0)
(1.00046 -0.0221034 0)
(1.00396 -0.0277692 0)
(1.00811 -0.0338695 0)
(1.01288 -0.0405471 0)
(1.01828 -0.0479658 0)
(1.02424 -0.0563104 0)
(1.03072 -0.0657838 0)
(1.03758 -0.0765988 0)
(1.04466 -0.0889604 0)
(1.05171 -0.103037 0)
(1.05841 -0.11892 0)
(1.06437 -0.136568 0)
(1.06919 -0.155759 0)
(1.0725 -0.176057 0)
(1.00193 0.0374799 0)
(1.01223 0.106747 0)
(1.03212 0.165481 0)
(1.05656 0.211135 0)
(1.08152 0.243328 0)
(1.1044 0.263056 0)
(1.1236 0.272104 0)
(1.13833 0.272569 0)
(1.14845 0.266522 0)
(1.15429 0.255813 0)
(1.1564 0.241986 0)
(1.15545 0.226265 0)
(1.1521 0.209583 0)
(1.14698 0.19262 0)
(1.14063 0.175859 0)
(1.1335 0.159623 0)
(1.12598 0.144119 0)
(1.11836 0.129467 0)
(1.11086 0.115724 0)
(1.10366 0.102901 0)
(1.09689 0.0909815 0)
(1.09064 0.0799274 0)
(1.08496 0.0696871 0)
(1.07989 0.0602014 0)
(1.07546 0.051406 0)
(1.07167 0.0432344 0)
(1.06852 0.0356189 0)
(1.06602 0.0284916 0)
(1.06415 0.0217846 0)
(1.06289 0.0154298 0)
(1.06225 0.00935872 0)
(1.06221 0.00350134 0)
(1.06275 -0.00221444 0)
(1.06389 -0.00786423 0)
(1.0656 -0.0135286 0)
(1.06788 -0.0192947 0)
(1.07073 -0.0252583 0)
(1.07414 -0.0315256 0)
(1.07809 -0.0382153 0)
(1.08257 -0.0454596 0)
(1.08754 -0.0534051 0)
(1.09294 -0.0622108 0)
(1.09868 -0.0720437 0)
(1.10465 -0.0830691 0)
(1.11066 -0.0954352 0)
(1.1165 -0.10925 0)
(1.12189 -0.124548 0)
(1.12652 -0.141261 0)
(1.13008 -0.159185 0)
(1.13229 -0.177968 0)
(1.00154 0.0319034 0)
(1.01014 0.0919935 0)
(1.02733 0.144583 0)
(1.04939 0.187342 0)
(1.07314 0.219455 0)
(1.09635 0.241192 0)
(1.1174 0.253561 0)
(1.13529 0.257972 0)
(1.14957 0.255975 0)
(1.16022 0.249066 0)
(1.16747 0.238583 0)
(1.17173 0.225655 0)
(1.17348 0.211199 0)
(1.17322 0.195928 0)
(1.1714 0.18038 0)
(1.16843 0.164948 0)
(1.16469 0.149909 0)
(1.16046 0.135448 0)
(1.156 0.121678 0)
(1.15149 0.108664 0)
(1.1471 0.0964273 0)
(1.14294 0.0849645 0)
(1.1391 0.0742509 0)
(1.13565 0.0642479 0)
(1.13262 0.0549074 0)
(1.13006 0.0461745 0)
(1.12797 0.0379904 0)
(1.12639 0.0302929 0)
(1.1253 0.0230181 0)
(1.12471 0.0161002 0)
(1.12462 0.0094716 0)
(1.12504 0.00306281 0)
(1.12595 -0.00319851 0)
(1.12735 -0.00938815 0)
(1.12925 -0.0155865 0)
(1.13162 -0.0218797 0)
(1.13447 -0.028361 0)
(1.13778 -0.0351317 0)
(1.14153 -0.0423024 0)
(1.14569 -0.0499932 0)
(1.15021 -0.0583327 0)
(1.15503 -0.0674555 0)
(1.16006 -0.0774968 0)
(1.16517 -0.0885834 0)
(1.1702 -0.100821 0)
(1.17495 -0.114273 0)
(1.17919 -0.128946 0)
(1.18267 -0.144757 0)
(1.18515 -0.161527 0)
(1.18643 -0.178972 0)
(1.00126 0.0272584 0)
(1.00854 0.0793618 0)
(1.0235 0.126089 0)
(1.04334 0.165415 0)
(1.06559 0.196367 0)
(1.08837 0.218795 0)
(1.1102 0.233181 0)
(1.13002 0.24042 0)
(1.14718 0.241618 0)
(1.16144 0.237938 0)
(1.17278 0.230487 0)
(1.1814 0.220259 0)
(1.18759 0.208102 0)
(1.19169 0.194713 0)
(1.19407 0.180648 0)
(1.19508 0.166334 0)
(1.19503 0.152094 0)
(1.19421 0.13816 0)
(1.19284 0.124693 0)
(1.19114 0.111797 0)
(1.18927 0.0995325 0)
(1.18737 0.0879275 0)
(1.18554 0.0769835 0)
(1.18387 0.0666836 0)
(1.18242 0.0569969 0)
(1.18124 0.0478825 0)
(1.18036 0.0392919 0)
(1.17982 0.0311711 0)
(1.17964 0.023462 0)
(1.17983 0.0161032 0)
(1.18039 0.00903041 0)
(1.18134 0.00217626 0)
(1.18267 -0.00452962 0)
(1.1844 -0.0111612 0)
(1.18651 -0.0177966 0)
(1.189 -0.0245189 0)
(1.19186 -0.0314167 0)
(1.19508 -0.038585 0)
(1.19863 -0.0461248 0)
(1.20247 -0.0541431 0)
(1.20656 -0.0627513 0)
(1.21082 -0.0720619 0)
(1.21517 -0.0821833 0)
(1.21948 -0.0932117 0)
(1.22362 -0.10522 0)
(1.2274 -0.118246 0)
(1.23063 -0.132274 0)
(1.23312 -0.147223 0)
(1.23467 -0.162936 0)
(1.23513 -0.179186 0)
(1.00105 0.0233246 0)
(1.0073 0.0684349 0)
(1.02042 0.109676 0)
(1.03827 0.145332 0)
(1.05893 0.17442 0)
(1.08087 0.19657 0)
(1.10277 0.211925 0)
(1.12361 0.221005 0)
(1.14267 0.224567 0)
(1.15953 0.22348 0)
(1.17403 0.218632 0)
(1.18617 0.210859 0)
(1.19609 0.200914 0)
(1.204 0.189446 0)
(1.21016 0.176993 0)
(1.21482 0.163993 0)
(1.21826 0.150788 0)
(1.22071 0.13764 0)
(1.22239 0.124742 0)
(1.22349 0.112231 0)
(1.22419 0.100198 0)
(1.22461 0.0886972 0)
(1.22487 0.0777546 0)
(1.22508 0.0673738 0)
(1.22531 0.0575412 0)
(1.22561 0.0482298 0)
(1.22605 0.0394026 0)
(1.22666 0.0310151 0)
(1.22747 0.0230165 0)
(1.22851 0.0153512 0)
(1.22979 0.00795969 0)
(1.23133 0.000778584 0)
(1.23314 -0.0062589 0)
(1.23523 -0.0132232 0)
(1.23759 -0.0201885 0)
(1.24022 -0.0272333 0)
(1.24311 -0.0344402 0)
(1.24625 -0.0418963 0)
(1.24961 -0.0496927 0)
(1.25315 -0.0579235 0)
(1.25683 -0.066684 0)
(1.26056 -0.0760673 0)
(1.26428 -0.0861595 0)
(1.26787 -0.0970331 0)
(1.27119 -0.108738 0)
(1.27412 -0.121292 0)
(1.27647 -0.134671 0)
(1.27809 -0.148796 0)
(1.27884 -0.163536 0)
(1.27858 -0.178703 0)
(1.00089 0.0199449 0)
(1.00633 0.0588875 0)
(1.01792 0.0950399 0)
(1.03402 0.126971 0)
(1.05314 0.15376 0)
(1.07404 0.174939 0)
(1.09557 0.190443 0)
(1.1168 0.200535 0)
(1.137 0.205706 0)
(1.15566 0.206583 0)
(1.17252 0.203854 0)
(1.18743 0.198203 0)
(1.20041 0.190276 0)
(1.21155 0.180652 0)
(1.22099 0.169831 0)
(1.22893 0.158237 0)
(1.23555 0.146213 0)
(1.24106 0.134033 0)
(1.24563 0.121909 0)
(1.24944 0.11 0)
(1.25265 0.0984182 0)
(1.25538 0.0872398 0)
(1.25775 0.0765108 0)
(1.25986 0.0662523 0)
(1.26181 0.0564665 0)
(1.26365 0.0471399 0)
(1.26545 0.0382469 0)
(1.26726 0.0297526 0)
(1.26911 0.0216142 0)
(1.27105 0.0137831 0)
(1.2731 0.00620546 0)
(1.27527 -0.00117673 0)
(1.27759 -0.00842545 0)
(1.28007 -0.0156063 0)
(1.2827 -0.0227884 0)
(1.28549 -0.0300442 0)
(1.28844 -0.0374496 0)
(1.29151 -0.0450833 0)
(1.2947 -0.0530261 0)
(1.29797 -0.0613598 0)
(1.30126 -0.0701652 0)
(1.30452 -0.0795186 0)
(1.30766 -0.089488 0)
(1.31059 -0.100128 0)
(1.31319 -0.11147 0)
(1.31535 -0.123522 0)
(1.31693 -0.136253 0)
(1.3178 -0.149591 0)
(1.31783 -0.163425 0)
(1.31695 -0.177599 0)
(1.00077 0.0170034 0)
(1.00555 0.0504632 0)
(1.01588 0.0819121 0)
(1.03048 0.110166 0)
(1.04816 0.134402 0)
(1.06794 0.154126 0)
(1.08886 0.169157 0)
(1.11006 0.179586 0)
(1.13084 0.185709 0)
(1.15069 0.187965 0)
(1.16924 0.186871 0)
(1.18627 0.182971 0)
(1.2017 0.176803 0)
(1.2155 0.168867 0)
(1.22775 0.159614 0)
(1.23854 0.149435 0)
(1.248 0.138661 0)
(1.25629 0.127563 0)
(1.26353 0.116359 0)
(1.26988 0.105218 0)
(1.27547 0.0942669 0)
(1.28042 0.0835968 0)
(1.28484 0.0732681 0)
(1.28883 0.0633165 0)
(1.29247 0.0537569 0)
(1.29584 0.0445879 0)
(1.29901 0.0357943 0)
(1.30203 0.0273504 0)
(1.30495 0.0192217 0)
(1.30781 0.0113667 0)
(1.31063 0.00373798 0)
(1.31346 -0.00371646 0)
(1.3163 -0.0110529 0)
(1.31918 -0.0183313 0)
(1.3221 -0.0256146 0)
(1.32507 -0.0329688 0)
(1.32807 -0.0404623 0)
(1.33111 -0.0481651 0)
(1.33415 -0.0561481 0)
(1.33716 -0.0644816 0)
(1.3401 -0.0732333 0)
(1.34292 -0.0824655 0)
(1.34554 -0.0922313 0)
(1.34788 -0.102571 0)
(1.34984 -0.113505 0)
(1.35132 -0.125031 0)
(1.35222 -0.137117 0)
(1.35241 -0.1497 0)
(1.35182 -0.162683 0)
(1.35037 -0.175939 0)
(1.00067 0.014412 0)
(1.00492 0.0429569 0)
(1.01421 0.070057 0)
(1.02752 0.0947399 0)
(1.04391 0.11629 0)
(1.06259 0.134229 0)
(1.08277 0.148322 0)
(1.10367 0.158551 0)
(1.12467 0.165077 0)
(1.14522 0.168192 0)
(1.16494 0.168275 0)
(1.18355 0.16575 0)
(1.20088 0.161053 0)
(1.21685 0.154605 0)
(1.23142 0.146798 0)
(1.24464 0.137983 0)
(1.25658 0.128467 0)
(1.26733 0.118506 0)
(1.27698 0.108315 0)
(1.28565 0.0980623 0)
(1.29344 0.0878818 0)
(1.30046 0.077872 0)
(1.30682 0.0681031 0)
(1.31259 0.0586204 0)
(1.31787 0.0494491 0)
(1.32272 0.0405971 0)
(1.32722 0.0320582 0)
(1.33142 0.0238149 0)
(1.33538 0.0158404 0)
(1.33914 0.00810017 0)
(1.34273 0.000553465 0)
(1.3462 -0.00684554 0)
(1.34956 -0.0141469 0)
(1.35284 -0.0214044 0)
(1.35605 -0.0286745 0)
(1.35919 -0.0360161 0)
(1.36226 -0.0434899 0)
(1.36526 -0.0511574 0)
(1.36817 -0.05908 0)
(1.37095 -0.0673173 0)
(1.37358 -0.0759256 0)
(1.37599 -0.0849551 0)
(1.37814 -0.0944471 0)
(1.37994 -0.10443 0)
(1.38133 -0.114917 0)
(1.38221 -0.125899 0)
(1.3825 -0.137346 0)
(1.3821 -0.1492 0)
(1.38095 -0.161378 0)
(1.37898 -0.173774 0)
(1.0006 0.0121023 0)
(1.00441 0.0362025 0)
(1.01285 0.0592704 0)
(1.02506 0.0805135 0)
(1.04031 0.0993219 0)
(1.05797 0.11526 0)
(1.07736 0.128075 0)
(1.09782 0.137686 0)
(1.11877 0.144162 0)
(1.13969 0.14769 0)
(1.16018 0.14854 0)
(1.17993 0.147033 0)
(1.19872 0.143515 0)
(1.21638 0.138332 0)
(1.23286 0.131818 0)
(1.24811 0.124276 0)
(1.26215 0.115982 0)
(1.27502 0.10717 0)
(1.28679 0.0980399 0)
(1.29752 0.0887563 0)
(1.3073 0.0794495 0)
(1.31621 0.0702202 0)
(1.32434 0.0611425 0)
(1.33176 0.0522676 0)
(1.33855 0.0436268 0)
(1.34479 0.035235 0)
(1.35054 0.0270929 0)
(1.35586 0.0191897 0)
(1.36081 0.0115054 0)
(1.36542 0.00401178 0)
(1.36975 -0.00332549 0)
(1.37382 -0.010546 0)
(1.37768 -0.0176937 0)
(1.38134 -0.0248157 0)
(1.38481 -0.031962 0)
(1.38812 -0.0391843 0)
(1.39125 -0.0465357 0)
(1.39422 -0.0540693 0)
(1.397 -0.0618375 0)
(1.39957 -0.0698904 0)
(1.4019 -0.0782741 0)
(1.40394 -0.0870286 0)
(1.40566 -0.0961855 0)
(1.40698 -0.105765 0)
(1.40785 -0.115772 0)
(1.40819 -0.126197 0)
(1.40793 -0.137007 0)
(1.407 -0.148153 0)
(1.40534 -0.159564 0)
(1.40291 -0.171148 0)
(1.00054 0.0100194 0)
(1.00401 0.0300627 0)
(1.01173 0.0493749 0)
(1.02303 0.067316 0)
(1.0373 0.0833774 0)
(1.05403 0.0971767 0)
(1.07265 0.108468 0)
(1.0926 0.11714 0)
(1.11335 0.123205 0)
(1.13441 0.126774 0)
(1.15537 0.128032 0)
(1.17592 0.12722 0)
(1.19578 0.124605 0)
(1.21476 0.120465 0)
(1.23275 0.115075 0)
(1.24965 0.108693 0)
(1.26544 0.101555 0)
(1.28011 0.093871 0)
(1.29368 0.0858197 0)
(1.3062 0.0775524 0)
(1.31772 0.0691916 0)
(1.3283 0.0608343 0)
(1.33801 0.0525537 0)
(1.34691 0.0444021 0)
(1.35507 0.036414 0)
(1.36257 0.0286079 0)
(1.36945 0.0209893 0)
(1.37579 0.0135527 0)
(1.38163 0.00628325 0)
(1.38702 -0.000841601 0)
(1.39202 -0.00785047 0)
(1.39665 -0.0147771 0)
(1.40095 -0.0216593 0)
(1.40494 -0.0285379 0)
(1.40866 -0.0354562 0)
(1.4121 -0.0424591 0)
(1.41529 -0.0495921 0)
(1.41821 -0.0569005 0)
(1.42086 -0.0644282 0)
(1.42322 -0.0722167 0)
(1.42527 -0.0803031 0)
(1.42697 -0.0887189 0)
(1.42829 -0.0974874 0)
(1.42917 -0.106622 0)
(1.42956 -0.116123 0)
(1.42941 -0.125977 0)
(1.42865 -0.136156 0)
(1.42723 -0.146613 0)
(1.42511 -0.157286 0)
(1.42225 -0.168099 0)
(1.00049 0.00811868 0)
(1.00368 0.0244222 0)
(1.01084 0.0402147 0)
(1.02138 0.0549868 0)
(1.03481 0.0683234 0)
(1.05073 0.0799005 0)
(1.06865 0.0894952 0)
(1.08808 0.0969885 0)
(1.10854 0.102358 0)
(1.12958 0.105664 0)
(1.15081 0.10703 0)
(1.17188 0.106631 0)
(1.19252 0.104669 0)
(1.2125 0.101362 0)
(1.23166 0.0969298 0)
(1.24987 0.091585 0)
(1.26708 0.0855248 0)
(1.28322 0.0789274 0)
(1.2983 0.0719484 0)
(1.31232 0.0647205 0)
(1.32532 0.0573536 0)
(1.33732 0.0499358 0)
(1.34839 0.042535 0)
(1.35857 0.035201 0)
(1.36792 0.0279678 0)
(1.37651 0.0208551 0)
(1.38439 0.0138708 0)
(1.39161 0.00701249 0)
(1.39824 0.00026939 0)
(1.40431 -0.00637646 0)
(1.40988 -0.0129488 0)
(1.41498 -0.019476 0)
(1.41966 -0.0259901 0)
(1.42394 -0.0325262 0)
(1.42784 -0.039121 0)
(1.43139 -0.0458128 0)
(1.43459 -0.0526399 0)
(1.43744 -0.0596402 0)
(1.43995 -0.0668499 0)
(1.4421 -0.0743027 0)
(1.44388 -0.0820279 0)
(1.44525 -0.0900494 0)
(1.44619 -0.0983837 0)
(1.44666 -0.107038 0)
(1.44661 -0.116011 0)
(1.44601 -0.125286 0)
(1.44479 -0.134835 0)
(1.44293 -0.144618 0)
(1.44038 -0.154581 0)
(1.43712 -0.164656 0)
(1.00045 0.00636279 0)
(1.00342 0.0191825 0)
(1.01012 0.0316521 0)
(1.02005 0.0433754 0)
(1.0328 0.0540236 0)
(1.04803 0.0633323 0)
(1.06534 0.0711111 0)
(1.08428 0.0772475 0)
(1.10443 0.0817033 0)
(1.12536 0.0845054 0)
(1.1467 0.0857346 0)
(1.16811 0.0855124 0)
(1.18928 0.0839881 0)
(1.20999 0.0813269 0)
(1.23003 0.0776995 0)
(1.24926 0.0732735 0)
(1.26757 0.0682077 0)
(1.28489 0.0626471 0)
(1.30117 0.0567205 0)
(1.31641 0.0505389 0)
(1.33061 0.0441953 0)
(1.34378 0.0377652 0)
(1.35597 0.0313077 0)
(1.36721 0.0248667 0)
(1.37755 0.0184724 0)
(1.38704 0.0121433 0)
(1.39574 0.00588737 0)
(1.4037 -0.000296167 0)
(1.41097 -0.00641564 0)
(1.4176 -0.0124856 0)
(1.42364 -0.0185257 0)
(1.42912 -0.0245596 0)
(1.43409 -0.0306143 0)
(1.43857 -0.0367192 0)
(1.4426 -0.0429052 0)
(1.4462 -0.0492041 0)
(1.44937 -0.0556475 0)
(1.45213 -0.0622665 0)
(1.45448 -0.0690903 0)
(1.4564 -0.0761453 0)
(1.4579 -0.083454 0)
(1.45895 -0.0910338 0)
(1.45953 -0.0988954 0)
(1.4596 -0.107042 0)
(1.45914 -0.115468 0)
(1.45811 -0.124156 0)
(1.45647 -0.13308 0)
(1.45419 -0.142203 0)
(1.45124 -0.151477 0)
(1.44761 -0.160844 0)
(1.00042 0.0047197 0)
(1.00323 0.0142572 0)
(1.00957 0.0235631 0)
(1.01902 0.0323411 0)
(1.03123 0.0403414 0)
(1.0459 0.0473593 0)
(1.06269 0.0532422 0)
(1.08121 0.057894 0)
(1.10106 0.0612731 0)
(1.12185 0.0633874 0)
(1.14321 0.064286 0)
(1.16481 0.0640511 0)
(1.18634 0.0627877 0)
(1.20755 0.0606154 0)
(1.22823 0.0576601 0)
(1.2482 0.0540477 0)
(1.26733 0.0498986 0)
(1.28554 0.0453244 0)
(1.30274 0.0404249 0)
(1.31891 0.0352869 0)
(1.33404 0.0299839 0)
(1.34812 0.0245758 0)
(1.36118 0.0191095 0)
(1.37324 0.0136203 0)
(1.38435 0.00813246 0)
(1.39455 0.00266073 0)
(1.40388 -0.0027886 0)
(1.4124 -0.00821649 0)
(1.42016 -0.01363 0)
(1.4272 -0.0190415 0)
(1.43357 -0.0244673 0)
(1.43932 -0.0299272 0)
(1.44448 -0.0354436 0)
(1.44908 -0.0410407 0)
(1.45316 -0.046744 0)
(1.45673 -0.0525793 0)
(1.45983 -0.0585721 0)
(1.46245 -0.064747 0)
(1.4646 -0.0711269 0)
(1.46628 -0.0777316 0)
(1.46749 -0.0845776 0)
(1.46822 -0.0916766 0)
(1.46843 -0.0990343 0)
(1.46812 -0.10665 0)
(1.46726 -0.114515 0)
(1.46582 -0.122612 0)
(1.46378 -0.130917 0)
(1.46111 -0.139393 0)
(1.45778 -0.147998 0)
(1.45379 -0.156682 0)
(1.0004 0.00316132 0)
(1.00308 0.00956959 0)
(1.00917 0.0158349 0)
(1.01826 0.0217508 0)
(1.03006 0.0271416 0)
(1.04431 0.0318608 0)
(1.0607 0.0357968 0)
(1.07888 0.038876 0)
(1.09847 0.0410622 0)
(1.11911 0.0423537 0)
(1.14044 0.0427781 0)
(1.16213 0.0423865 0)
(1.18387 0.0412476 0)
(1.20541 0.039441 0)
(1.2265 0.0370523 0)
(1.24698 0.0341676 0)
(1.26668 0.0308705 0)
(1.2855 0.0272387 0)
(1.30335 0.0233421 0)
(1.32018 0.0192419 0)
(1.33596 0.0149897 0)
(1.35069 0.0106276 0)
(1.36436 0.00618841 0)
(1.377 0.00169646 0)
(1.38864 -0.00283196 0)
(1.39932 -0.00738766 0)
(1.40908 -0.0119677 0)
(1.41798 -0.0165744 0)
(1.42605 -0.0212149 0)
(1.43335 -0.0259001 0)
(1.43991 -0.030644 0)
(1.44579 -0.0354631 0)
(1.45103 -0.0403757 0)
(1.45565 -0.0454014 0)
(1.45969 -0.0505607 0)
(1.46317 -0.0558737 0)
(1.46612 -0.0613605 0)
(1.46855 -0.0670398 0)
(1.47047 -0.0729283 0)
(1.47188 -0.0790403 0)
(1.47278 -0.0853866 0)
(1.47316 -0.0919739 0)
(1.47302 -0.0988037 0)
(1.47233 -0.105872 0)
(1.47108 -0.113167 0)
(1.46925 -0.120673 0)
(1.46681 -0.128363 0)
(1.46376 -0.136206 0)
(1.46008 -0.144162 0)
(1.45575 -0.152186 0)
(1.00039 0.00166232 0)
(1.00299 0.0050493 0)
(1.0089 0.00836243 0)
(1.01776 0.0114782 0)
(1.02928 0.014291 0)
(1.04324 0.0167115 0)
(1.05935 0.0186708 0)
(1.07728 0.0201216 0)
(1.09668 0.0210387 0)
(1.11719 0.021417 0)
(1.13846 0.0212691 0)
(1.16017 0.0206216 0)
(1.18201 0.0195119 0)
(1.20372 0.0179844 0)
(1.22505 0.0160869 0)
(1.24582 0.0138685 0)
(1.26585 0.0113764 0)
(1.28504 0.00865488 0)
(1.30327 0.00574348 0)
(1.32049 0.0026765 0)
(1.33665 -0.000517445 0)
(1.35174 -0.00381558 0)
(1.36577 -0.00720077 0)
(1.37873 -0.0106613 0)
(1.39067 -0.0141902 0)
(1.40161 -0.0177852 0)
(1.41159 -0.0214478 0)
(1.42066 -0.0251829 0)
(1.42886 -0.0289985 0)
(1.43624 -0.0329048 0)
(1.44285 -0.0369141 0)
(1.44873 -0.04104 0)
(1.45391 -0.0452975 0)
(1.45844 -0.049702 0)
(1.46235 -0.0542691 0)
(1.46566 -0.0590141 0)
(1.46839 -0.0639517 0)
(1.47057 -0.0690951 0)
(1.47221 -0.0744558 0)
(1.47331 -0.0800427 0)
(1.47387 -0.0858618 0)
(1.4739 -0.0919151 0)
(1.47338 -0.0982004 0)
(1.47231 -0.104711 0)
(1.47068 -0.111433 0)
(1.46846 -0.118348 0)
(1.46565 -0.125433 0)
(1.46223 -0.132657 0)
(1.4582 -0.139983 0)
(1.45354 -0.147371 0)
(1.00038 0.000199186 0)
(1.00294 0.000630625 0)
(1.00876 0.00104613 0)
(1.01749 0.00140136 0)
(1.02887 0.00165817 0)
(1.04267 0.00178397 0)
(1.05862 0.00175287 0)
(1.07641 0.00154628 0)
(1.09568 0.0011529 0)
(1.1161 0.000568127 0)
(1.13732 -0.000206823 0)
(1.159 -0.00116607 0)
(1.18085 -0.00230029 0)
(1.2026 -0.00359795 0)
(1.224 -0.00504642 0)
(1.24486 -0.00663297 0)
(1.265 -0.00834553 0)
(1.2843 -0.0101734 0)
(1.30266 -0.0121075 0)
(1.32 -0.0141409 0)
(1.33628 -0.0162689 0)
(1.35148 -0.0184886 0)
(1.36559 -0.0207999 0)
(1.37863 -0.0232041 0)
(1.39061 -0.0257049 0)
(1.40157 -0.0283075 0)
(1.41155 -0.0310187 0)
(1.42059 -0.0338466 0)
(1.42873 -0.0368005 0)
(1.43603 -0.0398905 0)
(1.44252 -0.0431276 0)
(1.44824 -0.0465232 0)
(1.45325 -0.0500889 0)
(1.45757 -0.0538363 0)
(1.46124 -0.0577768 0)
(1.46429 -0.061921 0)
(1.46674 -0.0662786 0)
(1.46861 -0.0708579 0)
(1.46991 -0.0756654 0)
(1.47066 -0.0807053 0)
(1.47086 -0.0859789 0)
(1.47051 -0.0914844 0)
(1.46961 -0.0972161 0)
(1.46815 -0.103164 0)
(1.46613 -0.109314 0)
(1.46353 -0.115646 0)
(1.46035 -0.122137 0)
(1.45658 -0.128756 0)
(1.45221 -0.135472 0)
(1.44723 -0.142247 0)
(1.00038 -0.00125051 0)
(1.00293 -0.00374961 0)
(1.00874 -0.00621026 0)
(1.01746 -0.00859896 0)
(1.02882 -0.010887 0)
(1.04259 -0.0130507 0)
(1.05852 -0.0150725 0)
(1.07627 -0.0169418 0)
(1.0955 -0.0186548 0)
(1.11586 -0.0202144 0)
(1.13702 -0.0216296 0)
(1.15864 -0.0229141 0)
(1.18042 -0.0240854 0)
(1.20209 -0.0251639 0)
(1.2234 -0.0261717 0)
(1.24416 -0.0271317 0)
(1.26419 -0.0280671 0)
(1.28338 -0.0290003 0)
(1.3016 -0.029953 0)
(1.31881 -0.0309457 0)
(1.33494 -0.0319977 0)
(1.34998 -0.0331268 0)
(1.36392 -0.0343496 0)
(1.37677 -0.0356812 0)
(1.38855 -0.0371359 0)
(1.39931 -0.0387268 0)
(1.40906 -0.0404662 0)
(1.41786 -0.0423657 0)
(1.42576 -0.0444362 0)
(1.43278 -0.0466878 0)
(1.43899 -0.0491306 0)
(1.44443 -0.0517736 0)
(1.44912 -0.0546255 0)
(1.45312 -0.0576945 0)
(1.45645 -0.0609877 0)
(1.45915 -0.0645115 0)
(1.46124 -0.068271 0)
(1.46273 -0.0722699 0)
(1.46365 -0.07651 0)
(1.46401 -0.0809911 0)
(1.46381 -0.0857106 0)
(1.46306 -0.0906629 0)
(1.46175 -0.0958393 0)
(1.4599 -0.101227 0)
(1.45748 -0.106811 0)