/*--------------------------------*- C++ -*----------------------------------*\
| =========                 |                                                 |
| \\      /  F ield         | OpenFOAM: The Open Source CFD Toolbox           |
|  \\    /   O peration     | Version:  2306                                  |
|   \\  /    A nd           | Website:  www.openfoam.com                      |
|    \\/     M anipulation  |                                                 |
\*---------------------------------------------------------------------------*/
FoamFile
{
    version     2.0;
    format      ascii;
    arch        "LSB;label=32;scalar=64";
    class       volScalarField;
    location    "4.75";
    object      p;
}
// * * * * * * * * * * * * * * * * * * * * * * * * * * * * * * * * * * * * * //

dimensions      [0 2 -2 0 0 0 0];

internalField   nonuniform List<scalar> 
1900
(
0.0557061
0.0314854
0.0110938
-0.00424613
-0.0152653
-0.0258192
-0.0362588
-0.0484205
-0.0609715
-0.0750207
0.0264452
0.0182469
0.00693151
-0.00462057
-0.0156443
-0.025831
-0.0362626
-0.0467738
-0.0582679
-0.069319
0.0173511
0.0128607
0.00534569
-0.00402169
-0.0141043
-0.0240819
-0.0338593
-0.0434098
-0.0528344
-0.0619165
0.0116487
0.00857553
0.00292615
-0.00472152
-0.0135722
-0.0228112
-0.0320007
-0.0409129
-0.0495039
-0.057662
0.00942289
0.00688761
0.00214912
-0.00449867
-0.012477
-0.0210799
-0.0297539
-0.0381765
-0.0461986
-0.0537313
0.0100555
0.00757466
0.00296384
-0.00350136
-0.01124
-0.0195439
-0.0278541
-0.0358537
-0.0434187
-0.0505201
0.0135094
0.0105633
0.00528185
-0.0018017
-0.00986252
-0.0181502
-0.0261991
-0.033832
-0.0410407
-0.0478604
0.0202071
0.0159114
0.00901327
0.000543738
-0.00827713
-0.0167027
-0.0245375
-0.031875
-0.0388651
-0.0455698
0.0303468
0.0222474
0.011811
0.0013493
-0.00795869
-0.0160717
-0.0234421
-0.0304927
-0.0373873
-0.0440858
0.0591966
0.0365239
0.0168165
0.00275302
-0.00690534
-0.0146018
-0.0218326
-0.0290528
-0.0362125
-0.0431065
-0.0982093
-0.0982428
-0.0982877
-0.0983418
-0.0984021
-0.0984681
-0.0985395
-0.0986152
-0.0986938
-0.0987737
-0.0988533
-0.0989308
-0.0990045
-0.0990726
-0.0991335
-0.0991854
-0.0992268
-0.0992562
-0.0992723
-0.0992737
-0.0992595
-0.0992287
-0.0991805
-0.0991143
-0.0990294
-0.0989257
-0.0988027
-0.0986602
-0.0984979
-0.0983157
-0.0981133
-0.0978903
-0.0976463
-0.0973808
-0.0970931
-0.0967823
-0.0964466
-0.0960835
-0.0956885
-0.0952545
-0.0947708
-0.0942221
-0.0935879
-0.0928416
-0.0919517
-0.0908818
-0.0895925
-0.0880411
-0.0861803
-0.0839564
-0.0813097
-0.0781752
-0.0744867
-0.0701844
-0.0652203
-0.0595667
-0.0532248
-0.0462476
-0.038695
-0.0306623
-0.0222731
-0.013677
-0.00503442
0.00348739
0.0117226
0.019516
0.0267245
0.033233
0.0389418
0.0437936
0.0477414
0.0507811
0.0529127
0.0541772
0.0546078
0.0542769
0.0532354
0.0515707
0.0493353
0.0466192
0.0434638
0.039954
0.0361109
0.0320122
0.0276505
0.0231009
0.0183149
0.0133819
0.00817904
0.00287453
-0.0982048
-0.0982365
-0.0982635
-0.098305
-0.0983561
-0.0984156
-0.0984817
-0.0985529
-0.0986276
-0.0987041
-0.0987808
-0.098856
-0.0989277
-0.0989943
-0.099054
-0.0991051
-0.0991459
-0.0991749
-0.0991907
-0.099192
-0.0991776
-0.0991466
-0.099098
-0.0990312
-0.0989456
-0.0988405
-0.0987158
-0.0985709
-0.0984056
-0.0982196
-0.0980124
-0.0977837
-0.0975326
-0.0972585
-0.0969602
-0.0966362
-0.0962846
-0.0959024
-0.0954854
-0.095027
-0.0945183
-0.0939471
-0.0932969
-0.0925472
-0.0916721
-0.0906401
-0.0894146
-0.0879539
-0.0862088
-0.0841194
-0.0816154
-0.0786189
-0.0750499
-0.070842
-0.0659665
-0.0604131
-0.0541755
-0.0472651
-0.0397513
-0.0317377
-0.0233497
-0.0147405
-0.00607479
0.00247866
0.0107434
0.0185667
0.0258028
0.0323374
0.0380608
0.0429292
0.04689
0.0499436
0.0520858
0.0533636
0.0538053
0.053491
0.0524643
0.0508227
0.0486089
0.0459256
0.0428003
0.039334
0.0355289
0.0314833
0.0271663
0.0226752
0.017938
0.0130663
0.00795036
0.00274906
-0.0980873
-0.0981686
-0.0982141
-0.0982675
-0.0983237
-0.0983851
-0.0984529
-0.0985259
-0.0986029
-0.0986822
-0.098762
-0.0988404
-0.0989157
-0.0989858
-0.099049
-0.0991035
-0.0991477
-0.0991798
-0.0991984
-0.0992021
-0.0991897
-0.0991602
-0.0991126
-0.0990462
-0.0989605
-0.098855
-0.0987293
-0.0985832
-0.0984166
-0.0982293
-0.0980213
-0.097792
-0.097541
-0.0972672
-0.0969693
-0.096646
-0.096295
-0.0959129
-0.0954955
-0.0950367
-0.0945292
-0.0939638
-0.0933289
-0.0926101
-0.0917884
-0.0908364
-0.0897163
-0.0883832
-0.0867828
-0.0848454
-0.0824884
-0.079634
-0.0762096
-0.0721338
-0.067339
-0.0618068
-0.0555527
-0.0486224
-0.0410856
-0.0330499
-0.0246346
-0.016006
-0.00734273
0.00120006
0.0094491
0.0172563
0.0244671
0.0309755
0.0366724
0.0415114
0.0454413
0.0484673
0.0505848
0.0518461
0.0522784
0.0519668
0.0509526
0.0493378
0.0471616
0.0445306
0.0414691
0.0380807
0.0343668
0.0304249
0.0262285
0.0218698
0.0172927
0.0125918
0.00768728
0.00268716
-0.0981692
-0.098243
-0.0982473
-0.0982732
-0.0983189
-0.098381
-0.0984543
-0.098535
-0.0986203
-0.0987082
-0.0987965
-0.098883
-0.0989656
-0.0990425
-0.0991116
-0.0991713
-0.0992197
-0.0992552
-0.0992764
-0.0992819
-0.0992705
-0.0992411
-0.0991929
-0.0991253
-0.0990376
-0.0989294
-0.0988004
-0.0986506
-0.0984802
-0.098289
-0.0980774
-0.0978451
-0.0975917
-0.097316
-0.0970166
-0.096692
-0.09634
-0.0959579
-0.0955423
-0.0950883
-0.0945898
-0.094039
-0.0934288
-0.0927489
-0.0919837
-0.0911069
-0.0900758
-0.0888379
-0.087348
-0.0855256
-0.083276
-0.0805068
-0.0771315
-0.0730971
-0.0683374
-0.0628439
-0.0566243
-0.049728
-0.0422314
-0.0342458
-0.0259035
-0.0173639
-0.00880269
-0.000382137
0.00772718
0.0153798
0.0224288
0.0287723
0.0343111
0.0389991
0.0427922
0.0456984
0.0477192
0.0489084
0.0492982
0.0489728
0.0479777
0.0464108
0.0443156
0.0417917
0.0388694
0.0356424
0.0321207
0.0283895
0.0244359
0.0203372
0.0160576
0.0116696
0.00711512
0.0024677
-0.0978434
-0.0980488
-0.0981396
-0.0982437
-0.0983424
-0.0984357
-0.0985283
-0.0986235
-0.098721
-0.0988192
-0.0989161
-0.0990098
-0.0990984
-0.09918
-0.0992526
-0.0993146
-0.0993644
-0.0994002
-0.0994207
-0.0994245
-0.0994104
-0.0993775
-0.0993251
-0.0992526
-0.0991596
-0.0990457
-0.0989108
-0.0987552
-0.0985794
-0.0983836
-0.0981684
-0.0979337
-0.0976793
-0.0974037
-0.0971045
-0.0967807
-0.0964307
-0.0960519
-0.0956412
-0.0951945
-0.0947059
-0.0941686
-0.0935785
-0.0929273
-0.092196
-0.091365
-0.0903786
-0.0891854
-0.0877098
-0.0858951
-0.0836477
-0.0808806
-0.0775092
-0.0734743
-0.0687277
-0.0632607
-0.0570898
-0.0502701
-0.042884
-0.0350462
-0.0268931
-0.0185799
-0.0102755
-0.00214275
0.00565684
0.012983
0.0197034
0.025721
0.0309513
0.0353521
0.0388913
0.0415799
0.0434296
0.0444934
0.0448119
0.0444639
0.0435017
0.0420141
0.0400509
0.0376996
0.034998
0.0320252
0.028802
0.0253968
0.0218114
0.0181047
0.0142598
0.0103291
0.00627953
0.00216548
-0.098675
-0.0986976
-0.0985966
-0.0985517
-0.0985624
-0.0986203
-0.0987082
-0.0988091
-0.0989121
-0.0990139
-0.0991123
-0.0992055
-0.0992919
-0.0993699
-0.0994378
-0.0994942
-0.0995377
-0.099567
-0.0995805
-0.0995769
-0.0995552
-0.0995147
-0.0994547
-0.0993749
-0.099275
-0.0991546
-0.0990136
-0.0988525
-0.0986719
-0.0984724
-0.0982543
-0.0980179
-0.0977626
-0.0974867
-0.0971868
-0.0968653
-0.0965199
-0.0961466
-0.0957421
-0.0953026
-0.0948227
-0.0942939
-0.093704
-0.0930433
-0.092296
-0.0914336
-0.0904088
-0.0891669
-0.0876404
-0.08576
-0.0834408
-0.0806033
-0.0771718
-0.0730951
-0.068339
-0.0629016
-0.0568084
-0.0501207
-0.0429272
-0.0353455
-0.0275118
-0.019578
-0.0117019
-0.0040383
0.00326638
0.0100826
0.0162964
0.021821
0.0265898
0.0305686
0.0337412
0.0361223
0.037736
0.0386337
0.0388645
0.0384997
0.0375975
0.0362346
0.0344659
0.0323638
0.0299719
0.0273532
0.024536
0.0215719
0.0184735
0.0152823
0.0119964
0.00865135
0.00523461
0.00178219
-0.0973494
-0.0979955
-0.0981984
-0.0984549
-0.0986702
-0.0988332
-0.0989554
-0.0990564
-0.0991493
-0.0992375
-0.0993215
-0.0993998
-0.0994713
-0.0995347
-0.0995885
-0.0996315
-0.0996627
-0.0996807
-0.0996839
-0.0996708
-0.0996406
-0.0995922
-0.0995251
-0.0994388
-0.099333
-0.099207
-0.0990607
-0.0988961
-0.0987133
-0.0985122
-0.0982932
-0.0980565
-0.0978015
-0.0975268
-0.0972278
-0.0968989
-0.0965423
-0.0961563
-0.0957356
-0.0952746
-0.0947658
-0.0942008
-0.0935679
-0.0928532
-0.0920341
-0.0910806
-0.0899468
-0.0885782
-0.0869096
-0.0848743
-0.0823998
-0.0794193
-0.0758727
-0.0717206
-0.0669431
-0.0615498
-0.0555765
-0.0490922
-0.0421897
-0.0349875
-0.0276178
-0.0202256
-0.0129542
-0.00594364
0.000681623
0.00681044
0.012352
0.0172356
0.0214154
0.0248691
0.0275967
0.0296179
0.0309675
0.0316937
0.0318509
0.0315011
0.0307043
0.0295239
0.0280157
0.0262367
0.0242322
0.022049
0.0197198
0.01728
0.0147499
0.0121551
0.00950516
0.00681964
0.00410159
0.00137128
-0.10206
-0.100681
-0.100053
-0.0996195
-0.0993928
-0.0993035
-0.0992916
-0.0993161
-0.0993551
-0.099401
-0.0994504
-0.0995001
-0.0995478
-0.0995918
-0.0996301
-0.0996606
-0.0996818
-0.0996911
-0.0996856
-0.0996649
-0.0996283
-0.0995752
-0.0995048
-0.0994169
-0.0993104
-0.0991838
-0.0990352
-0.0988637
-0.0986726
-0.0984623
-0.0982318
-0.09798
-0.0977054
-0.0974055
-0.097077
-0.0967165
-0.0963215
-0.0958882
-0.0954105
-0.0948811
-0.0942909
-0.0936291
-0.0928815
-0.0920302
-0.0910506
-0.0899112
-0.0885697
-0.0869763
-0.0850735
-0.0828032
-0.0801073
-0.0769351
-0.073246
-0.0690174
-0.0642449
-0.0589512
-0.0531816
-0.0470096
-0.0405276
-0.03385
-0.0270993
-0.0204071
-0.0138987
-0.00769473
-0.0018941
0.00341687
0.00817404
0.0123272
0.0158523
0.0187396
0.0210027
0.0226644
0.0237651
0.0243477
0.0244667
0.0241731
0.0235248
0.0225713
0.0213666
0.0199523
0.0183736
0.0166618
0.0148518
0.0129643
0.0110251
0.00904573
0.00704456
0.00502655
0.00300491
0.000981525
-0.0962205
-0.0973064
-0.0981435
-0.0987552
-0.099072
-0.0991908
-0.0992254
-0.0992393
-0.0992551
-0.0992854
-0.0993245
-0.0993651
-0.0994056
-0.0994442
-0.0994789
-0.0995075
-0.0995291
-0.0995433
-0.0995463
-0.0995318
-0.0994976
-0.0994434
-0.0993688
-0.099273
-0.0991564
-0.0990167
-0.0988516
-0.0986597
-0.0984415
-0.0981967
-0.0979241
-0.0976219
-0.0972879
-0.0969189
-0.0965109
-0.0960595
-0.0955594
-0.0950052
-0.0943902
-0.0937058
-0.0929415
-0.0920848
-0.0911198
-0.0900282
-0.0887866
-0.087366
-0.0857306
-0.0838397
-0.0816483
-0.0791122
-0.0761893
-0.0728448
-0.0690536
-0.0648095
-0.0601249
-0.0550346
-0.0495915
-0.0438702
-0.0379584
-0.031959
-0.0259775
-0.0201239
-0.0144977
-0.00919354
-0.00428653
0.000159367
0.00410546
0.00752197
0.0104033
0.012749
0.0145812
0.0159218
0.0168123
0.0172878
0.0173998
0.0171873
0.016705
0.0159892
0.0150913
0.0140393
0.0128777
0.0116236
0.0103139
0.00895501
0.00757807
0.00618021
0.00478885
0.00339373
0.00201999
0.000649394
-0.118889
-0.103976
-0.102049
-0.100573
-0.0996582
-0.0992296
-0.0990548
-0.098993
-0.0989749
-0.098979
-0.0990182
-0.0990802
-0.099145
-0.0992058
-0.0992608
-0.0993082
-0.0993454
-0.0993686
-0.0993732
-0.0993539
-0.0993074
-0.0992324
-0.0991283
-0.0989957
-0.0988345
-0.0986423
-0.0984157
-0.0981522
-0.0978498
-0.0975073
-0.0971231
-0.0966954
-0.0962217
-0.0956987
-0.0951222
-0.0944873
-0.0937886
-0.0930201
-0.0921748
-0.0912445
-0.0902192
-0.0890868
-0.0878325
-0.0864376
-0.08488
-0.0831355
-0.0811771
-0.0789756
-0.0765008
-0.0737244
-0.070622
-0.0671775
-0.0633846
-0.0592519
-0.0548019
-0.0500739
-0.0451195
-0.040005
-0.0348052
-0.0296049
-0.0244884
-0.0195414
-0.0148382
-0.0104485
-0.00642458
-0.00281151
0.000371029
0.00310858
0.00540659
0.00726936
0.00872177
0.00978367
0.0104951
0.0108842
0.0109986
0.0108677
0.0105419
0.010047
0.00943174
0.00871254
0.00793323
0.00709806
0.0062461
0.00536908
0.00450394
0.00363107
0.00278873
0.00194724
0.00114857
0.000349004
-0.0864617
-0.0929119
-0.0954193
-0.0962641
-0.0967136
-0.0971174
-0.097491
-0.0978053
-0.0980772
-0.0983141
-0.0985183
-0.0986921
-0.0988389
-0.0989624
-0.0990652
-0.0991465
-0.0992032
-0.0992308
-0.0992241
-0.0991786
-0.099091
-0.0989591
-0.0987824
-0.0985607
-0.0982934
-0.0979793
-0.0976163
-0.0972024
-0.0967362
-0.0962165
-0.0956415
-0.0950086
-0.0943143
-0.0935554
-0.0927284
-0.0918292
-0.0908532
-0.089795
-0.0886485
-0.0874066
-0.0860609
-0.0846015
-0.0830168
-0.0812933
-0.079416
-0.077369
-0.0751352
-0.0726974
-0.0700388
-0.0671452
-0.0640064
-0.0606193
-0.0569884
-0.0531284
-0.049064
-0.0448308
-0.0404734
-0.0360448
-0.031605
-0.0272201
-0.0229557
-0.018877
-0.0150405
-0.0114963
-0.00827888
-0.0054141
-0.0029101
-0.000771447
0.00101239
0.00244954
0.00356498
0.00437843
0.00492772
0.00523799
0.00535261
0.0052951
0.00511027
0.00481577
0.00445552
0.00403719
0.00360222
0.00314461
0.00270372
0.00225776
0.00184807
0.00143687
0.00107391
0.000704578
0.000391997
5.89996e-05
-0.080556
-0.0883298
-0.09231
-0.0937342
-0.0941696
-0.0945091
-0.0950101
-0.0956296
-0.096254
-0.0968092
-0.0972716
-0.0976494
-0.0979605
-0.0982195
-0.0984338
-0.0986035
-0.0987248
-0.0987914
-0.0987974
-0.0987378
-0.0986094
-0.0984102
-0.0981398
-0.0977988
-0.0973879
-0.0969077
-0.0963589
-0.0957415
-0.0950556
-0.0943013
-0.093478
-0.0925846
-0.0916197
-0.0905815
-0.0894676
-0.0882757
-0.0870023
-0.0856438
-0.0841957
-0.0826531
-0.0810104
-0.0792612
-0.0773986
-0.0754147
-0.0733012
-0.0710496
-0.0686507
-0.0660958
-0.0633768
-0.0604884
-0.0574288
-0.0542013
-0.0508149
-0.0472858
-0.0436378
-0.0399033
-0.0361217
-0.032339
-0.028603
-0.0249634
-0.0214685
-0.0181653
-0.0150938
-0.0122876
-0.00976899
-0.00755285
-0.00564166
-0.00403091
-0.00270361
-0.00164421
-0.000827661
-0.00023251
0.000175134
0.000421027
0.000543815
0.000565586
0.000522353
0.000426016
0.000309459
0.000174377
5.3778e-05
-6.3546e-05
-0.000143678
-0.000215739
-0.000239846
-0.000266581
-0.000239175
-0.00023514
-0.000169371
-0.000159564
-0.0703729
-0.0775566
-0.0829
-0.0863932
-0.0885427
-0.090005
-0.0912282
-0.0923917
-0.0935081
-0.0945321
-0.0954258
-0.0961791
-0.0968025
-0.0973129
-0.097724
-0.0980425
-0.098269
-0.0984007
-0.0984338
-0.0983653
-0.0981936
-0.097919
-0.0975428
-0.0970677
-0.0964969
-0.095834
-0.0950822
-0.0942445
-0.0933237
-0.0923219
-0.0912408
-0.0900815
-0.0888444
-0.0875293
-0.0861353
-0.084661
-0.0831047
-0.0814642
-0.0797369
-0.0779201
-0.0760111
-0.0740067
-0.0719041
-0.0697004
-0.0673929
-0.0649792
-0.0624572
-0.0598257
-0.0570847
-0.0542355
-0.0512816
-0.0482295
-0.0450893
-0.0418762
-0.038612
-0.0353254
-0.0320527
-0.0288346
-0.0257133
-0.0227286
-0.0199148
-0.0172995
-0.0149027
-0.0127401
-0.0108245
-0.00916599
-0.00776551
-0.00661082
-0.00567465
-0.0049283
-0.00434354
-0.00389902
-0.0035698
-0.00333247
-0.00315518
-0.00301603
-0.00289057
-0.00277251
-0.00264674
-0.0025166
-0.00236508
-0.00220242
-0.00200704
-0.00180247
-0.00155811
-0.00131787
-0.0010312
-0.000778585
-0.000468143
-0.000247834
-0.0651765
-0.0718018
-0.0772791
-0.0815045
-0.0846015
-0.0868799
-0.0886807
-0.0902423
-0.0916728
-0.0929897
-0.094173
-0.095202
-0.0960705
-0.096784
-0.0973529
-0.0977853
-0.0980852
-0.0982528
-0.0982864
-0.0981847
-0.0979477
-0.0975775
-0.0970776
-0.0964531
-0.0957099
-0.0948539
-0.0938913
-0.0928276
-0.0916681
-0.0904175
-0.0890799
-0.0876581
-0.0861542
-0.0845695
-0.0829041
-0.0811581
-0.0793308
-0.0774215
-0.0754297
-0.0733549
-0.0711969
-0.0689562
-0.0666337
-0.0642309
-0.0617502
-0.0591951
-0.05657
-0.0538802
-0.0511323
-0.0483332
-0.0454905
-0.0426129
-0.0397102
-0.0367955
-0.0338861
-0.0310061
-0.0281874
-0.0254692
-0.0228933
-0.0204962
-0.0183011
-0.0163133
-0.0145239
-0.0129225
-0.0115098
-0.0102974
-0.00929196
-0.00847974
-0.00782367
-0.0072773
-0.00680544
-0.00639375
-0.0060363
-0.00572488
-0.00544082
-0.00516508
-0.00487926
-0.00457703
-0.00425415
-0.0039181
-0.0035691
-0.00321687
-0.00285439
-0.00249229
-0.00211446
-0.0017426
-0.001347
-0.000979956
-0.000574413
-0.000259845
-0.0606916
-0.0669717
-0.0724438
-0.0770126
-0.0806856
-0.0835961
-0.0859539
-0.0879586
-0.0897425
-0.0913641
-0.0928311
-0.09413
-0.0952473
-0.0961781
-0.0969246
-0.0974919
-0.097884
-0.098103
-0.0981492
-0.0980233
-0.0977277
-0.097267
-0.0966478
-0.0958782
-0.0949668
-0.0939224
-0.0927534
-0.0914682
-0.0900747
-0.0885806
-0.0869923
-0.085315
-0.0835525
-0.0817073
-0.0797811
-0.0777748
-0.0756891
-0.0735249
-0.0712834
-0.0689665
-0.0665769
-0.0641186
-0.0615962
-0.0590156
-0.0563839
-0.0537098
-0.0510036
-0.0482774
-0.0455442
-0.0428168
-0.0401069
-0.0374244
-0.0347784
-0.032178
-0.029634
-0.0271603
-0.024778
-0.0225207
-0.0204318
-0.0185511
-0.0168972
-0.0154519
-0.01417
-0.0130095
-0.0119587
-0.0110337
-0.0102526
-0.00961463
-0.00908544
-0.00860847
-0.0081388
-0.00766427
-0.00719562
-0.00674761
-0.00632585
-0.00592645
-0.00553955
-0.005156
-0.0047667
-0.00436957
-0.00396338
-0.0035529
-0.00313706
-0.00272087
-0.00229843
-0.00187817
-0.0014492
-0.001036
-0.000608652
-0.000251314
-0.0571389
-0.0632203
-0.0686785
-0.0734358
-0.0774693
-0.0808329
-0.083648
-0.0860599
-0.088189
-0.0901068
-0.0918394
-0.0933843
-0.0947288
-0.0958616
-0.0967773
-0.0974753
-0.0979569
-0.0982233
-0.0982759
-0.098117
-0.0977514
-0.0971872
-0.0964353
-0.0955083
-0.0944188
-0.0931782
-0.0917973
-0.0902872
-0.0886584
-0.086921
-0.0850839
-0.0831546
-0.0811388
-0.079041
-0.0768641
-0.0746105
-0.0722822
-0.0698816
-0.0674119
-0.0648776
-0.0622845
-0.0596401
-0.0569537
-0.0542356
-0.0514974
-0.0487516
-0.0460129
-0.0432993
-0.0406309
-0.0380261
-0.0354985
-0.0330564
-0.0307044
-0.0284462
-0.0262849
-0.024222
-0.0222578
-0.020411
-0.0187203
-0.0172268
-0.0159563
-0.0148807
-0.013933
-0.0130539
-0.0122202
-0.0114391
-0.0107184
-0.0100748
-0.00951353
-0.00900706
-0.00852308
-0.00805328
-0.00759437
-0.00713797
-0.00668173
-0.00622569
-0.00576976
-0.00531567
-0.00486645
-0.00442553
-0.00399311
-0.0035679
-0.00314699
-0.00272928
-0.00230983
-0.00188941
-0.00146403
-0.00104336
-0.00062145
-0.000253703
-0.0542892
-0.0602722
-0.0657279
-0.0705906
-0.07484
-0.0785086
-0.0816732
-0.0844325
-0.0868798
-0.089081
-0.0910687
-0.0928481
-0.0944089
-0.0957365
-0.0968191
-0.0976492
-0.0982234
-0.0985403
-0.0986008
-0.0984082
-0.0979693
-0.0972954
-0.096403
-0.0953118
-0.0940393
-0.0926006
-0.0910094
-0.0892792
-0.0874235
-0.0854547
-0.0833844
-0.0812225
-0.0789769
-0.0766537
-0.0742579
-0.0717932
-0.0692634
-0.0666728
-0.0640264
-0.061331
-0.0585957
-0.0558317
-0.0530531
-0.0502754
-0.0475148
-0.0447853
-0.0421012
-0.0394836
-0.0369565
-0.0345388
-0.0322404
-0.0300627
-0.0280009
-0.0260503
-0.0242107
-0.0224812
-0.0208618
-0.0193506
-0.0179659
-0.0167302
-0.015641
-0.0146815
-0.0138274
-0.0130511
-0.0123351
-0.0116768
-0.0110856
-0.0105193
-0.00993641
-0.0093274
-0.00871566
-0.00812783
-0.00757885
-0.00707233
-0.00660485
-0.006162
-0.00572994
-0.00530081
-0.00487154
-0.00444226
-0.0040142
-0.00358913
-0.0031668
-0.00274607
-0.00232469
-0.00190211
-0.00147717
-0.00105458
-0.000641822
-0.000250421
-0.0519498
-0.0579142
-0.0633795
-0.0683016
-0.0726807
-0.0765546
-0.0799836
-0.0830351
-0.0857729
-0.0882469
-0.0904862
-0.0924978
-0.0942728
-0.0957946
-0.0970457
-0.0980118
-0.0986833
-0.0990556
-0.0991285
-0.0989061
-0.0983975
-0.0976176
-0.096588
-0.0953354
-0.0938838
-0.0922548
-0.090468
-0.0885418
-0.0864927
-0.0843358
-0.0820844
-0.0797496
-0.0773402
-0.0748635
-0.0723251
-0.06973
-0.0670831
-0.0643897
-0.0616563
-0.0588911
-0.0561046
-0.0533102
-0.0505246
-0.0477669
-0.0450575
-0.0424122
-0.0398487
-0.0373896
-0.0350523
-0.0328446
-0.0307641
-0.0288018
-0.0269429
-0.025174
-0.0234935
-0.0219182
-0.0204759
-0.0191934
-0.0180794
-0.0171164
-0.0162263
-0.015326
-0.0143876
-0.0134316
-0.0125168
-0.0117056
-0.0109952
-0.0103725
-0.00980511
-0.00925135
-0.0087045
-0.0081673
-0.00764699
-0.00715322
-0.00668137
-0.00622384
-0.00577475
-0.00533105
-0.00489198
-0.00445779
-0.00402764
-0.00360096
-0.00317711
-0.00275516
-0.00233381
-0.00191208
-0.00148947
-0.00107049
-0.000663341
-0.000250063
-0.05046
-0.056395
-0.0618315
-0.0667611
-0.0712085
-0.0752148
-0.0788293
-0.0821005
-0.0850707
-0.0877741
-0.0902307
-0.0924445
-0.0944063
-0.0960975
-0.0974964
-0.0985828
-0.0993409
-0.0997614
-0.0998421
-0.099589
-0.099016
-0.0981435
-0.0969956
-0.0955978
-0.0939814
-0.0921786
-0.0902194
-0.0881297
-0.0859315
-0.0836426
-0.0812771
-0.078846
-0.0763576
-0.0738182
-0.0712324
-0.0686045
-0.0659385
-0.063239
-0.0605116
-0.0577639
-0.0550056
-0.0522495
-0.0495114
-0.0468112
-0.0441731
-0.0416253
-0.0391975
-0.036911
-0.0347766
-0.0327913
-0.0309362
-0.0291808
-0.0274926
-0.0258315
-0.0241796
-0.0225478
-0.020974
-0.0195089
-0.0182033
-0.0170566
-0.0160402
-0.0151112
-0.0142293
-0.0133837
-0.0125792
-0.0118304
-0.0111509
-0.0105237
-0.00992531
-0.00934112
-0.00876959
-0.00821677
-0.00768866
-0.00718571
-0.00670529
-0.00624209
-0.00579044
-0.00534623
-0.00490714
-0.0044723
-0.00404127
-0.00361361
-0.0031887
-0.00276586
-0.00234448
-0.0019239
-0.00150392
-0.00108775
-0.000679137
-0.000252476
-0.0495692
-0.0555249
-0.0609653
-0.0659169
-0.0704196
-0.0745166
-0.0782516
-0.0816684
-0.0848033
-0.0876786
-0.0903021
-0.0926696
-0.0947673
-0.0965754
-0.0980716
-0.0992354
-0.10005
-0.100507
-0.100605
-0.100352
-0.0997628
-0.0988628
-0.0976807
-0.0962486
-0.0945995
-0.0927656
-0.090777
-0.0886606
-0.0864393
-0.084132
-0.0817533
-0.0793145
-0.0768241
-0.0742883
-0.0717118
-0.0690983
-0.0664514
-0.0637751
-0.0610741
-0.0583548
-0.0556253
-0.0528965
-0.0501821
-0.0474989
-0.0448671
-0.0423085
-0.0398449
-0.037495
-0.0352707
-0.0331749
-0.0312013
-0.0293408
-0.0275583
-0.0258299
-0.0241535
-0.0225407
-0.0210215
-0.0196294
-0.0183828
-0.0172787
-0.016275
-0.0153237
-0.0144004
-0.0135069
-0.0126635
-0.0118903
-0.0111883
-0.0105448
-0.00993771
-0.00935211
-0.00878477
-0.00823794
-0.00771439
-0.00721424
-0.00673398
-0.00626874
-0.00581423
-0.00536753
-0.00492687
-0.00449123
-0.00405977
-0.00363176
-0.00320649
-0.00278337
-0.00236212
-0.00194267
-0.001525
-0.00110961
-0.00069526
-0.000259582
)
;

boundaryField
{
    fixedWalls
    {
        type            zeroGradient;
    }
    inflowWall
    {
        type            zeroGradient;
    }
    outflowWall
    {
        type            fixedValue;
        value           uniform 0;
    }
    frontAndBack
    {
        type            empty;
    }
}


// ************************************************************************* //
