/*--------------------------------*- C++ -*----------------------------------*\
| =========                 |                                                 |
| \\      /  F ield         | OpenFOAM: The Open Source CFD Toolbox           |
|  \\    /   O peration     | Version:  2306                                  |
|   \\  /    A nd           | Website:  www.openfoam.com                      |
|    \\/     M anipulation  |                                                 |
\*---------------------------------------------------------------------------*/
FoamFile
{
    version     2.0;
    format      ascii;
    arch        "LSB;label=32;scalar=64";
    class       volScalarField;
    location    "3.46";
    object      p;
}
// * * * * * * * * * * * * * * * * * * * * * * * * * * * * * * * * * * * * * //

dimensions      [0 2 -2 0 0 0 0];

internalField   nonuniform List<scalar> 
1900
(
0.0580162
0.0337894
0.0133917
-0.00195791
-0.0129897
-0.023564
-0.0340302
-0.0462304
-0.0588311
-0.0729486
0.0287558
0.0205557
0.00923465
-0.00232573
-0.0133618
-0.0235649
-0.0340194
-0.044559
-0.0560875
-0.067169
0.0196683
0.0151762
0.0076572
-0.00171619
-0.0118068
-0.0217942
-0.0315829
-0.0411458
-0.0505848
-0.0596869
0.0139729
0.0108988
0.00524708
-0.00240412
-0.0112596
-0.0205044
-0.029701
-0.0386212
-0.0472213
-0.0553853
0.0117557
0.00922016
0.00448119
-0.00216719
-0.0101462
-0.0187498
-0.0274244
-0.0358467
-0.043865
-0.0513893
0.0123968
0.00991664
0.00530705
-0.00115623
-0.00889213
-0.017192
-0.0254964
-0.0334874
-0.04104
-0.0481249
0.0158589
0.0129141
0.00763542
0.000556132
-0.00749855
-0.0157777
-0.0238153
-0.0314332
-0.0386228
-0.0454182
0.0225635
0.0182697
0.0113756
0.00291232
-0.00589958
-0.014313
-0.0221318
-0.0294491
-0.0364137
-0.0430869
0.0327091
0.0246121
0.0141806
0.00372696
-0.00556971
-0.0136676
-0.0210187
-0.0280448
-0.0349088
-0.0415698
0.0615614
0.0388916
0.0191901
0.00513566
-0.00451016
-0.01219
-0.0193992
-0.0265923
-0.0337186
-0.0405719
-0.0962371
-0.0962709
-0.0963149
-0.0963678
-0.0964268
-0.0964916
-0.0965618
-0.0966362
-0.0967137
-0.0967927
-0.0968717
-0.0969492
-0.0970237
-0.0970936
-0.0971575
-0.0972142
-0.0972622
-0.0973007
-0.0973285
-0.0973449
-0.0973492
-0.097341
-0.0973198
-0.0972855
-0.097238
-0.0971773
-0.0971036
-0.0970175
-0.0969196
-0.0968113
-0.0966941
-0.0965704
-0.0964429
-0.0963142
-0.0961861
-0.0960576
-0.0959235
-0.0957714
-0.0955807
-0.095321
-0.0949538
-0.0944347
-0.0937162
-0.092748
-0.0914743
-0.0898282
-0.0877294
-0.085085
-0.0817924
-0.0777407
-0.0728413
-0.0670415
-0.0603256
-0.0527292
-0.0443341
-0.035252
-0.0256339
-0.0156662
-0.00556264
0.00446419
0.0142007
0.0234438
0.0320116
0.039751
0.0465414
0.0523038
0.0569933
0.0606011
0.0631463
0.0646786
0.0652646
0.064989
0.0639426
0.0622279
0.0599408
0.0571811
0.0540337
0.0505848
0.0469005
0.0430487
0.0390737
0.0350256
0.0309268
0.0268129
0.0226858
0.0185715
0.0144505
0.0103484
0.00621889
0.00210719
-0.0962329
-0.0962641
-0.0962906
-0.0963313
-0.0963815
-0.09644
-0.0965052
-0.0965753
-0.0966489
-0.0967246
-0.0968007
-0.0968757
-0.0969481
-0.0970163
-0.0970788
-0.0971343
-0.0971813
-0.0972187
-0.0972456
-0.097261
-0.0972642
-0.0972546
-0.0972318
-0.0971954
-0.0971453
-0.0970814
-0.0970039
-0.0969128
-0.0968088
-0.0966923
-0.0965642
-0.0964257
-0.096278
-0.0961227
-0.0959606
-0.0957908
-0.0956098
-0.0954094
-0.0951756
-0.094888
-0.0945194
-0.0940361
-0.0933974
-0.092554
-0.0914447
-0.0899927
-0.0881018
-0.0856557
-0.0825261
-0.0785991
-0.0737978
-0.0681027
-0.0615015
-0.0539987
-0.0456546
-0.0365918
-0.0269705
-0.016978
-0.00683631
0.00323631
0.0130212
0.0223094
0.0309212
0.0387012
0.0455177
0.0513049
0.0560161
0.0596436
0.0622051
0.0637528
0.0643538
0.0640998
0.0630796
0.0613967
0.0591436
0.0564231
0.0533162
0.0499133
0.0462747
0.0424742
0.0385481
0.0345547
0.030506
0.0264485
0.0223707
0.0183134
0.014241
0.010196
0.00612042
0.00207411
-0.0961154
-0.0961967
-0.0962415
-0.0962941
-0.0963494
-0.0964099
-0.0964766
-0.0965485
-0.0966242
-0.0967023
-0.0967811
-0.096859
-0.0969344
-0.0970056
-0.097071
-0.0971292
-0.0971787
-0.0972184
-0.0972471
-0.0972638
-0.0972678
-0.0972585
-0.0972354
-0.0971985
-0.0971475
-0.0970825
-0.0970038
-0.0969117
-0.0968066
-0.096689
-0.0965591
-0.0964175
-0.0962645
-0.0961007
-0.095926
-0.0957397
-0.0955397
-0.0953227
-0.0950832
-0.0948126
-0.0944956
-0.094109
-0.0936166
-0.0929636
-0.0920756
-0.0908551
-0.0891866
-0.0869393
-0.0839872
-0.0802306
-0.0755615
-0.069913
-0.0632889
-0.0557394
-0.0473501
-0.0382489
-0.0285953
-0.0185488
-0.00840473
0.00165963
0.011428
0.0206984
0.0292849
0.0370358
0.0438256
0.0495829
0.0542624
0.0578615
0.0603989
0.0619321
0.0625273
0.0622791
0.061275
0.0596226
0.0574114
0.0547472
0.0517069
0.0483839
0.0448337
0.0411333
0.0373138
0.0334368
0.0295093
0.025581
0.0216364
0.0177175
0.0137872
0.00988546
0.00595611
0.0020454
-0.0961999
-0.0962726
-0.0962758
-0.0963004
-0.0963447
-0.0964055
-0.0964774
-0.0965565
-0.0966402
-0.0967264
-0.0968133
-0.0968989
-0.0969812
-0.0970587
-0.0971296
-0.0971925
-0.0972458
-0.0972882
-0.0973186
-0.0973361
-0.0973401
-0.0973299
-0.0973054
-0.0972663
-0.0972126
-0.0971444
-0.097062
-0.0969657
-0.0968557
-0.0967324
-0.0965956
-0.0964451
-0.0962799
-0.0961004
-0.0959078
-0.0957043
-0.0954921
-0.0952735
-0.0950486
-0.094813
-0.0945575
-0.094265
-0.0938995
-0.0933963
-0.0926655
-0.0915972
-0.0900761
-0.0879592
-0.0851055
-0.0813995
-0.0767755
-0.0711689
-0.0645889
-0.0570838
-0.0487432
-0.0397025
-0.0301235
-0.0202011
-0.0101741
-0.00025405
0.00934704
0.0184327
0.0268223
0.0343733
0.0409699
0.0465443
0.0510564
0.05451
0.0569286
0.0583741
0.0589147
0.0586467
0.0576575
0.0560549
0.0539258
0.0513742
0.0484734
0.0453138
0.041948
0.0384493
0.0348472
0.0311992
0.0275126
0.0238322
0.0201453
0.0164876
0.0128278
0.00919608
0.0055436
0.00190066
-0.0958735
-0.0960781
-0.0961676
-0.0962703
-0.0963675
-0.0964592
-0.0965501
-0.0966435
-0.0967392
-0.0968356
-0.0969309
-0.0970235
-0.0971116
-0.0971935
-0.0972675
-0.0973322
-0.0973861
-0.097428
-0.0974566
-0.0974711
-0.097471
-0.097456
-0.097426
-0.0973811
-0.0973214
-0.0972471
-0.097159
-0.0970574
-0.0969425
-0.0968143
-0.0966724
-0.0965161
-0.096344
-0.0961551
-0.0959529
-0.0957411
-0.0955245
-0.0953085
-0.0950963
-0.0948857
-0.0946642
-0.0944179
-0.0941162
-0.0936763
-0.0930027
-0.0919788
-0.0904708
-0.0883589
-0.0855096
-0.0818166
-0.0772042
-0.0716328
-0.0651115
-0.0576971
-0.0494868
-0.0406192
-0.0312647
-0.0216187
-0.0119012
-0.00232774
0.00689558
0.0155827
0.0235663
0.0307157
0.0369287
0.0421473
0.0463418
0.0495241
0.0517255
0.0530118
0.0534545
0.0531488
0.0521819
0.0506572
0.0486588
0.0462835
0.0436014
0.0406947
0.0376135
0.0344228
0.0311516
0.0278488
0.024524
0.021213
0.0179084
0.014636
0.0113734
0.00813986
0.00490055
0.00167479
-0.0967078
-0.0967289
-0.0966257
-0.0965786
-0.0965872
-0.0966433
-0.0967294
-0.0968285
-0.0969297
-0.0970297
-0.0971264
-0.0972184
-0.097304
-0.0973818
-0.0974505
-0.0975088
-0.0975556
-0.0975897
-0.0976099
-0.0976156
-0.0976065
-0.0975826
-0.0975441
-0.0974914
-0.0974247
-0.0973438
-0.0972501
-0.0971441
-0.0970257
-0.0968947
-0.0967504
-0.0965916
-0.0964165
-0.0962219
-0.096019
-0.0958089
-0.0955952
-0.0953832
-0.0951757
-0.0949706
-0.0947517
-0.0944882
-0.0941433
-0.093649
-0.0929067
-0.0918024
-0.0902112
-0.0880113
-0.0850843
-0.081335
-0.0766996
-0.0711531
-0.0647126
-0.0574428
-0.0494495
-0.0408763
-0.0318958
-0.0227019
-0.0135005
-0.0044956
0.0041216
0.0121813
0.0195364
0.0260733
0.0317089
0.0363999
0.0401319
0.0429265
0.044825
0.0458956
0.0462131
0.0458683
0.0449466
0.0435421
0.0417346
0.0396096
0.0372322
0.0346726
0.0319777
0.0292006
0.0263697
0.0235227
0.0206716
0.0178415
0.0150307
0.0122548
0.00950057
0.00677784
0.00406567
0.0013741
-0.0953736
-0.0960233
-0.0962251
-0.0964806
-0.0966951
-0.0968572
-0.0969782
-0.0970775
-0.0971685
-0.0972547
-0.0973366
-0.0974132
-0.0974834
-0.0975459
-0.0975998
-0.0976441
-0.0976779
-0.0976999
-0.0977089
-0.0977042
-0.0976855
-0.097653
-0.0976068
-0.0975471
-0.0974741
-0.0973867
-0.0972892
-0.0971809
-0.097061
-0.0969292
-0.0967847
-0.0966267
-0.0964538
-0.096262
-0.0960472
-0.095822
-0.0955902
-0.0953528
-0.0951079
-0.0948484
-0.0945565
-0.094201
-0.0937358
-0.0930922
-0.0921762
-0.0908804
-0.0890905
-0.0866972
-0.0836022
-0.0797294
-0.0750323
-0.0695014
-0.0631675
-0.0561054
-0.0484284
-0.0402833
-0.0318403
-0.0232857
-0.0148101
-0.00659701
0.00118747
0.00839937
0.0149196
0.0206582
0.0255568
0.0295903
0.0327619
0.0351024
0.0366616
0.0375066
0.0377118
0.0373594
0.0365292
0.0353026
0.0337521
0.0319487
0.0299508
0.0278146
0.0255824
0.0232946
0.0209781
0.0186595
0.016352
0.0140713
0.0118199
0.00960512
0.00742168
0.00527172
0.00314586
0.0010476
-0.100094
-0.0987139
-0.0980847
-0.0976503
-0.0974228
-0.0973323
-0.0973189
-0.0973412
-0.0973776
-0.0974206
-0.0974671
-0.0975142
-0.0975598
-0.0976024
-0.0976402
-0.0976713
-0.0976947
-0.0977067
-0.0977066
-0.0976944
-0.0976705
-0.0976344
-0.0975859
-0.0975248
-0.097451
-0.0973623
-0.0972554
-0.0971361
-0.0970043
-0.0968577
-0.0966938
-0.0965104
-0.0963052
-0.0960758
-0.095822
-0.0955464
-0.0952498
-0.0949298
-0.0945801
-0.0941881
-0.0937321
-0.0931771
-0.0924733
-0.0915545
-0.0903378
-0.0887294
-0.0866324
-0.0839572
-0.0806296
-0.0765983
-0.0718386
-0.0663598
-0.0602073
-0.053464
-0.0462446
-0.0386925
-0.0309684
-0.0232427
-0.0156829
-0.00844773
-0.00167246
0.00453265
0.0100821
0.0149148
0.018999
0.022328
0.0249196
0.0268099
0.0280509
0.0287039
0.0288373
0.0285215
0.0278274
0.0268222
0.0255692
0.0241247
0.0225391
0.0208551
0.0191098
0.0173321
0.0155469
0.0137709
0.0120185
0.0102967
0.00861228
0.00696542
0.00535761
0.00378449
0.00224467
0.000732684
-0.0942411
-0.0953373
-0.0961771
-0.0967895
-0.0971054
-0.0972221
-0.0972542
-0.0972644
-0.0972776
-0.0973051
-0.0973418
-0.0973809
-0.0974196
-0.0974568
-0.097491
-0.0975206
-0.0975451
-0.0975637
-0.0975695
-0.097559
-0.0975322
-0.0974907
-0.0974348
-0.0973623
-0.0972713
-0.0971596
-0.0970262
-0.0968716
-0.0966949
-0.0964936
-0.0962647
-0.0960049
-0.0957108
-0.0953794
-0.0950076
-0.0945933
-0.0941337
-0.0936233
-0.0930519
-0.0924029
-0.0916519
-0.0907652
-0.0896971
-0.0883899
-0.0867763
-0.0847827
-0.0823359
-0.0793698
-0.0758314
-0.0716898
-0.0669428
-0.0616193
-0.0557783
-0.0495077
-0.0429193
-0.0361444
-0.0293232
-0.0225989
-0.0161055
-0.00996595
-0.00428267
0.000862401
0.00541517
0.00934209
0.0126336
0.0152958
0.0173545
0.0188453
0.0198169
0.0203207
0.0204163
0.0201612
0.0196173
0.0188388
0.0178806
0.0167858
0.0155975
0.014346
0.0130636
0.0117689
0.0104849
0.00921956
0.00798845
0.00679087
0.00563784
0.00452216
0.0034527
0.00241758
0.0014251
0.000459084
-0.116961
-0.102018
-0.100087
-0.0986093
-0.0976927
-0.0972625
-0.0970861
-0.0970208
-0.0969962
-0.0969945
-0.097027
-0.0970837
-0.097146
-0.0972034
-0.0972535
-0.0972955
-0.0973272
-0.0973452
-0.0973439
-0.0973197
-0.0972721
-0.0972009
-0.097105
-0.0969815
-0.0968274
-0.09664
-0.096417
-0.0961562
-0.0958554
-0.0955121
-0.0951236
-0.0946866
-0.0941973
-0.0936521
-0.0930472
-0.0923787
-0.0916419
-0.0908298
-0.0899314
-0.0889302
-0.087802
-0.0865132
-0.085024
-0.0832891
-0.0812593
-0.0788841
-0.0761162
-0.0729161
-0.0692583
-0.0651361
-0.060565
-0.0555835
-0.0502518
-0.0446497
-0.0388735
-0.0330318
-0.0272374
-0.0216019
-0.0162262
-0.0111992
-0.006593
-0.00246387
0.00115763
0.00425665
0.0068356
0.00890601
0.0104954
0.0116363
0.0123729
0.0127476
0.0128118
0.0126123
0.0122031
0.0116281
0.0109351
0.0101562
0.00932825
0.00847044
0.00761027
0.00675588
0.00592839
0.00512673
0.00436852
0.00364491
0.00297233
0.0023347
0.00174954
0.00119455
0.000690578
0.000206633
-0.0844565
-0.0909382
-0.093448
-0.0942843
-0.0947225
-0.0951146
-0.0954763
-0.0957785
-0.0960389
-0.096265
-0.0964577
-0.0966195
-0.0967537
-0.0968632
-0.09695
-0.0970137
-0.0970513
-0.0970584
-0.0970303
-0.0969629
-0.0968536
-0.0967005
-0.096502
-0.096256
-0.0959604
-0.0956129
-0.0952117
-0.0947548
-0.0942401
-0.0936646
-0.0930241
-0.092315
-0.0915344
-0.0906796
-0.0897474
-0.0887343
-0.0876352
-0.0864436
-0.0851496
-0.0837393
-0.0821941
-0.0804904
-0.0786009
-0.0764958
-0.0741442
-0.0715164
-0.0685871
-0.0653381
-0.0617619
-0.0578648
-0.0536678
-0.0492078
-0.0445355
-0.0397144
-0.0348204
-0.0299382
-0.0251555
-0.0205582
-0.0162239
-0.0122184
-0.00858885
-0.00536702
-0.00256774
-0.000195677
0.00175678
0.00330391
0.00447311
0.00529606
0.00581362
0.00606389
0.00609202
0.00593725
0.00564551
0.00525168
0.00479597
0.00430233
0.00380109
0.00330253
0.00282781
0.00237539
0.00196204
0.00157812
0.00124187
0.000937409
0.000686171
0.00046331
0.000295132
0.000146832
5.36997e-05
-3.13049e-05
-0.0784327
-0.0862181
-0.0902061
-0.0916331
-0.0920647
-0.0923946
-0.0928818
-0.0934841
-0.0940874
-0.0946168
-0.0950512
-0.0953999
-0.0956813
-0.0959094
-0.096091
-0.0962255
-0.0963086
-0.096334
-0.0962957
-0.0961885
-0.0960088
-0.0957546
-0.0954246
-0.0950184
-0.0945356
-0.093976
-0.0933395
-0.0926259
-0.0918346
-0.0909648
-0.0900152
-0.0889848
-0.0878724
-0.0866772
-0.0853978
-0.084032
-0.0825769
-0.0810279
-0.0793789
-0.0776211
-0.0757434
-0.0737322
-0.0715713
-0.0692429
-0.0667286
-0.064012
-0.0610808
-0.0579282
-0.0545553
-0.0509728
-0.0472026
-0.0432783
-0.0392457
-0.03516
-0.0310807
-0.0270706
-0.0231939
-0.0195141
-0.0160886
-0.0129636
-0.0101713
-0.00773136
-0.00565028
-0.00392191
-0.00252819
-0.00144813
-0.000654376
-0.000116165
0.00020485
0.000347336
0.000354085
0.000260365
0.000101022
-0.000100203
-0.000315728
-0.000529305
-0.000719256
-0.000881182
-0.00100243
-0.00109085
-0.00113784
-0.00115869
-0.00113894
-0.0010973
-0.00101155
-0.000909938
-0.000760484
-0.000605139
-0.000395889
-0.000194059
-0.0681743
-0.0753818
-0.0807257
-0.0842013
-0.0863252
-0.08776
-0.0889546
-0.0900869
-0.0911687
-0.0921546
-0.0930074
-0.0937176
-0.0942959
-0.0947589
-0.0951198
-0.0953843
-0.0955527
-0.0956213
-0.0955862
-0.0954435
-0.0951911
-0.0948286
-0.0943566
-0.0937771
-0.0930926
-0.0923058
-0.0914197
-0.0904369
-0.08936
-0.0881913
-0.0869325
-0.0855852
-0.0841504
-0.0826288
-0.0810209
-0.0793263
-0.0775444
-0.0756733
-0.0737106
-0.0716527
-0.0694947
-0.0672313
-0.0648558
-0.0623617
-0.0597426
-0.0569922
-0.0541065
-0.0510846
-0.0479311
-0.0446569
-0.0412817
-0.0378355
-0.0343596
-0.0309035
-0.0275211
-0.0242653
-0.0211834
-0.0183141
-0.0156866
-0.0133246
-0.0112498
-0.0094815
-0.00802493
-0.00686077
-0.00594967
-0.00525347
-0.00474339
-0.00439708
-0.00418629
-0.00407334
-0.00401502
-0.00397878
-0.0039451
-0.00390788
-0.00386003
-0.00379701
-0.00370857
-0.00359253
-0.00344255
-0.00326457
-0.00305416
-0.00282188
-0.00256073
-0.00228644
-0.00198461
-0.00167762
-0.00133793
-0.00100076
-0.000617295
-0.000251801
-0.0628944
-0.0695119
-0.0749768
-0.0791822
-0.0822516
-0.0844966
-0.0862595
-0.0877792
-0.0891639
-0.0904308
-0.0915603
-0.0925319
-0.0933394
-0.0939884
-0.0944885
-0.0948475
-0.0950684
-0.0951508
-0.0950923
-0.0948906
-0.094545
-0.0940564
-0.0934274
-0.0926622
-0.0917659
-0.0907441
-0.0896028
-0.0883478
-0.086985
-0.0855196
-0.0839561
-0.0822983
-0.0805493
-0.0787115
-0.076787
-0.0747779
-0.0726855
-0.0705116
-0.0682575
-0.0659246
-0.0635142
-0.0610279
-0.0584677
-0.0558363
-0.0531365
-0.0503712
-0.0475436
-0.044658
-0.0417205
-0.0387404
-0.0357318
-0.0327177
-0.029733
-0.0268256
-0.024053
-0.0214692
-0.0191112
-0.0169892
-0.0150898
-0.0133965
-0.0119175
-0.0106833
-0.00971286
-0.00898046
-0.00841854
-0.0079562
-0.00756245
-0.00724057
-0.00699362
-0.00680092
-0.00662404
-0.00643038
-0.00620319
-0.00594298
-0.00565961
-0.00536603
-0.0050676
-0.00476583
-0.00445597
-0.0041369
-0.00380408
-0.00346034
-0.00310193
-0.00273529
-0.00235369
-0.00196725
-0.00156069
-0.00115142
-0.000706429
-0.000267228
-0.058336
-0.0645985
-0.0700493
-0.074591
-0.0782289
-0.0810963
-0.0834042
-0.0853535
-0.0870775
-0.0886348
-0.0900332
-0.0912593
-0.0922995
-0.0931485
-0.0938081
-0.0942825
-0.0945751
-0.0946868
-0.0946175
-0.0943669
-0.0939362
-0.0933288
-0.0925495
-0.0916049
-0.0905029
-0.089252
-0.0878612
-0.0863399
-0.0846974
-0.0829422
-0.0810815
-0.0791217
-0.077068
-0.0749247
-0.0726961
-0.0703862
-0.0679994
-0.0655407
-0.063016
-0.0604318
-0.0577955
-0.055115
-0.0523996
-0.0496595
-0.0469063
-0.0441519
-0.041408
-0.0386848
-0.0359899
-0.0333294
-0.030709
-0.0281388
-0.0256374
-0.0232428
-0.0210166
-0.0190248
-0.0173082
-0.0158476
-0.0145717
-0.0134108
-0.0123572
-0.0114561
-0.0107524
-0.0102386
-0.00983768
-0.00945043
-0.00903031
-0.00859726
-0.00819165
-0.00782901
-0.00749534
-0.00717797
-0.00686357
-0.00653794
-0.00619558
-0.00584067
-0.00547838
-0.00511209
-0.00474188
-0.00436837
-0.00399026
-0.00360824
-0.00322029
-0.00282814
-0.00242879
-0.00202484
-0.00160889
-0.00118443
-0.000731893
-0.000268546
-0.0547223
-0.0607771
-0.0662028
-0.070921
-0.0749077
-0.0782166
-0.0809696
-0.083313
-0.0853681
-0.0872072
-0.0888567
-0.090314
-0.0915662
-0.0926014
-0.0934136
-0.094001
-0.0943636
-0.0945019
-0.0944162
-0.0941082
-0.0935821
-0.0928446
-0.0919045
-0.0907718
-0.0894573
-0.0879726
-0.0863299
-0.0845419
-0.0826209
-0.0805784
-0.0784251
-0.07617
-0.0738208
-0.0713845
-0.0688674
-0.0662761
-0.0636181
-0.0609025
-0.0581399
-0.055343
-0.0525258
-0.0497029
-0.0468894
-0.0441003
-0.0413539
-0.0386713
-0.036073
-0.0335724
-0.0311752
-0.0288808
-0.0266854
-0.0245825
-0.0225675
-0.0206538
-0.0188878
-0.0173415
-0.0160799
-0.0150734
-0.0142137
-0.0134042
-0.0126183
-0.0118839
-0.0112222
-0.0106714
-0.0102208
-0.00981109
-0.00940815
-0.00902507
-0.00864995
-0.00826443
-0.00786484
-0.0074532
-0.00703506
-0.00662175
-0.00622166
-0.00583556
-0.00546066
-0.00509359
-0.00472898
-0.00436252
-0.00399094
-0.00361352
-0.00322891
-0.00283759
-0.00243884
-0.00203333
-0.00161755
-0.00118971
-0.000740442
-0.000272731
-0.0518171
-0.0577634
-0.0631753
-0.0679867
-0.0721772
-0.0757793
-0.0788699
-0.0815482
-0.083908
-0.0860163
-0.0879063
-0.0895836
-0.0910378
-0.0922538
-0.0932182
-0.0939223
-0.0943609
-0.0945313
-0.0944328
-0.0940678
-0.0934428
-0.09257
-0.0914638
-0.0901394
-0.0886116
-0.0868959
-0.0850078
-0.0829635
-0.0807789
-0.0784689
-0.0760474
-0.0735266
-0.070917
-0.0682284
-0.0654697
-0.0626503
-0.059781
-0.0568746
-0.0539468
-0.0510166
-0.048106
-0.0452382
-0.0424336
-0.0397055
-0.0370713
-0.0345574
-0.0321857
-0.029964
-0.0278856
-0.0259382
-0.0241119
-0.0223929
-0.0207831
-0.0192911
-0.0179139
-0.0166907
-0.0156405
-0.0147502
-0.0139822
-0.0133009
-0.0127025
-0.0121866
-0.0117474
-0.0112795
-0.0107295
-0.0101207
-0.00953159
-0.00899952
-0.00853296
-0.00812528
-0.00774738
-0.00737561
-0.0070003
-0.00662031
-0.00623723
-0.00585702
-0.0054817
-0.00510958
-0.00473818
-0.00436531
-0.00398913
-0.00360784
-0.00322048
-0.00282701
-0.00242699
-0.00201992
-0.00160344
-0.00117566
-0.000733615
-0.000267767
-0.0494286
-0.055347
-0.0607579
-0.065617
-0.0699248
-0.07372
-0.0770626
-0.0800206
-0.0826581
-0.0850258
-0.0871535
-0.0890492
-0.0907047
-0.0921025
-0.0932238
-0.0940526
-0.0945774
-0.0947912
-0.0946913
-0.0942801
-0.0935657
-0.0925648
-0.0912988
-0.08979
-0.0880607
-0.086133
-0.0840285
-0.0817678
-0.0793708
-0.0768555
-0.074238
-0.0715325
-0.0687514
-0.0659059
-0.0630068
-0.0600653
-0.0570936
-0.0541068
-0.0511231
-0.0481649
-0.0452592
-0.0424362
-0.0397245
-0.0371416
-0.0347053
-0.0324326
-0.0303278
-0.0283786
-0.0265571
-0.0248285
-0.0231742
-0.0216096
-0.0201826
-0.0189437
-0.0179376
-0.0171363
-0.0164181
-0.0156287
-0.0147231
-0.0137565
-0.0128571
-0.0121217
-0.0115249
-0.011015
-0.0105301
-0.0100388
-0.00954889
-0.00907646
-0.00863817
-0.00822615
-0.00782612
-0.00742936
-0.00703349
-0.00664055
-0.00625285
-0.00587012
-0.00549179
-0.00511647
-0.004742
-0.00436624
-0.0039874
-0.00360409
-0.00321525
-0.00282027
-0.00241845
-0.00200872
-0.00158948
-0.00116102
-0.000723923
-0.000260676
-0.0478989
-0.0537806
-0.0591549
-0.0640134
-0.0683803
-0.0722968
-0.0758135
-0.0789807
-0.0818409
-0.0844288
-0.0867651
-0.0888541
-0.0906862
-0.092243
-0.0935026
-0.0944434
-0.0950481
-0.0953048
-0.0952091
-0.0947646
-0.0939821
-0.092878
-0.0914753
-0.0898039
-0.0878968
-0.0857867
-0.0835049
-0.0810792
-0.0785341
-0.0758903
-0.0731653
-0.0703733
-0.0675263
-0.0646347
-0.0617083
-0.0587569
-0.0557918
-0.0528265
-0.0498782
-0.0469687
-0.044125
-0.0413807
-0.0387734
-0.0363448
-0.0341275
-0.0321318
-0.0303392
-0.0287038
-0.0271585
-0.0256316
-0.0240701
-0.0224701
-0.0208804
-0.0193896
-0.0180888
-0.0170098
-0.0160866
-0.0152636
-0.0144555
-0.0136741
-0.0129481
-0.0122957
-0.0117252
-0.0111915
-0.0106629
-0.010133
-0.00961599
-0.00912722
-0.0086712
-0.00824349
-0.00783495
-0.00743692
-0.00704418
-0.00665479
-0.00626864
-0.00588614
-0.00550688
-0.00512969
-0.00475293
-0.00437488
-0.00399395
-0.00360879
-0.00321828
-0.00282152
-0.0024176
-0.0020053
-0.00158367
-0.00115413
-0.000717984
-0.000257058
-0.0469859
-0.0528841
-0.0582578
-0.0631333
-0.0675506
-0.0715529
-0.0751852
-0.0784918
-0.0815112
-0.0842666
-0.0867667
-0.0890077
-0.0909761
-0.0926519
-0.0940123
-0.0950349
-0.0957016
-0.0960005
-0.0959276
-0.0954884
-0.0946971
-0.0935758
-0.0921528
-0.0904602
-0.0885319
-0.0864018
-0.0841021
-0.0816619
-0.0791068
-0.0764584
-0.0737346
-0.07095
-0.0681166
-0.0652447
-0.0623434
-0.0594218
-0.0564897
-0.0535589
-0.0506438
-0.0477627
-0.0449384
-0.0421982
-0.0395729
-0.037093
-0.0347821
-0.0326503
-0.0306915
-0.0288868
-0.0271963
-0.0255514
-0.0239343
-0.0223492
-0.0208391
-0.0194689
-0.0182805
-0.0172727
-0.0163762
-0.0155144
-0.0146554
-0.0138151
-0.0130363
-0.0123494
-0.0117429
-0.011186
-0.0106512
-0.0101304
-0.00962879
-0.00915294
-0.00870425
-0.00827758
-0.00786579
-0.00746331
-0.00706722
-0.00667641
-0.00629043
-0.00590868
-0.00553019
-0.00515353
-0.00477708
-0.00439918
-0.0040183
-0.00363312
-0.00324249
-0.00284537
-0.00244069
-0.00202724
-0.00160401
-0.00117112
-0.000728448
-0.000261933
)
;

boundaryField
{
    fixedWalls
    {
        type            zeroGradient;
    }
    inflowWall
    {
        type            zeroGradient;
    }
    outflowWall
    {
        type            fixedValue;
        value           uniform 0;
    }
    frontAndBack
    {
        type            empty;
    }
}


// ************************************************************************* //
