/*--------------------------------*- C++ -*----------------------------------*\
| =========                 |                                                 |
| \\      /  F ield         | OpenFOAM: The Open Source CFD Toolbox           |
|  \\    /   O peration     | Version:  2306                                  |
|   \\  /    A nd           | Website:  www.openfoam.com                      |
|    \\/     M anipulation  |                                                 |
\*---------------------------------------------------------------------------*/
FoamFile
{
    version     2.0;
    format      ascii;
    arch        "LSB;label=32;scalar=64";
    class       volVectorField;
    location    "0.44";
    object      U;
}
// * * * * * * * * * * * * * * * * * * * * * * * * * * * * * * * * * * * * * //

dimensions      [0 1 -1 0 0 0 0];

internalField   nonuniform List<vector> 
47500
(
(0.708058 0.141126 0)
(0.605107 0.126852 0)
(0.442238 0.0756733 0)
(0.323205 0.0428889 0)
(0.252628 0.0249084 0)
(0.207935 0.0151468 0)
(0.177257 0.00977787 0)
(0.155189 0.00671788 0)
(0.138693 0.00487349 0)
(0.125941 0.00368954 0)
(0.115823 0.00288364 0)
(0.107638 0.00230731 0)
(0.100916 0.0018786 0)
(0.0953322 0.00154968 0)
(0.0906517 0.00129106 0)
(0.0867011 0.00108368 0)
(0.0833491 0.000914664 0)
(0.0804944 0.000775007 0)
(0.0780571 0.000658238 0)
(0.0759738 0.000559586 0)
(0.0741933 0.000475465 0)
(0.0726739 0.000403127 0)
(0.0713812 0.000340432 0)
(0.070287 0.000285687 0)
(0.0693675 0.000237533 0)
(0.0686031 0.000194863 0)
(0.0679773 0.000156762 0)
(0.0674762 0.000122463 0)
(0.0670885 9.13052e-05 0)
(0.0668047 6.27179e-05 0)
(0.0666174 3.61933e-05 0)
(0.0665206 1.12685e-05 0)
(0.06651 -1.2494e-05 0)
(0.0665831 -3.5523e-05 0)
(0.0667388 -5.82565e-05 0)
(0.066978 -8.11705e-05 0)
(0.0673038 -0.000104813 0)
(0.0677219 -0.000129857 0)
(0.0682417 -0.0001572 0)
(0.0688775 -0.000188177 0)
(0.0696516 -0.000225056 0)
(0.0705982 -0.000272293 0)
(0.0717739 -0.00033992 0)
(0.0732787 -0.000452893 0)
(0.0753016 -0.000676885 0)
(0.0782184 -0.00118842 0)
(0.0828991 -0.00247085 0)
(0.0917751 -0.0059201 0)
(0.110516 -0.0158035 0)
(0.145438 -0.0449211 0)
(0.990012 0.273751 0)
(0.981277 0.298007 0)
(0.863903 0.21609 0)
(0.734143 0.146999 0)
(0.62832 0.100193 0)
(0.545478 0.069771 0)
(0.48066 0.05016 0)
(0.429787 0.0373104 0)
(0.389456 0.0286158 0)
(0.35704 0.022513 0)
(0.330633 0.0180772 0)
(0.308864 0.0147522 0)
(0.290735 0.0121935 0)
(0.27551 0.0101803 0)
(0.262636 0.00856651 0)
(0.251689 0.00725234 0)
(0.242342 0.00616751 0)
(0.234338 0.00526138 0)
(0.227471 0.00449665 0)
(0.221575 0.00384524 0)
(0.216515 0.00328572 0)
(0.21218 0.00280139 0)
(0.208478 0.00237911 0)
(0.205332 0.00200831 0)
(0.202678 0.00168046 0)
(0.200462 0.00138848 0)
(0.198639 0.00112648 0)
(0.197171 0.000889439 0)
(0.196027 0.000672995 0)
(0.195181 0.000473286 0)
(0.194613 0.000286794 0)
(0.194306 0.000110204 0)
(0.194251 -5.97338e-05 0)
(0.194439 -0.000226367 0)
(0.194872 -0.000393337 0)
(0.195552 -0.000564857 0)
(0.196493 -0.000746117 0)
(0.197716 -0.000943922 0)
(0.199253 -0.00116776 0)
(0.201156 -0.00143172 0)
(0.203502 -0.00175807 0)
(0.206408 -0.00218444 0)
(0.210057 -0.00277881 0)
(0.214744 -0.00367229 0)
(0.220948 -0.00513214 0)
(0.229453 -0.00772245 0)
(0.241573 -0.0126543 0)
(0.259611 -0.0225945 0)
(0.286484 -0.0434349 0)
(0.320534 -0.0855763 0)
(1.02873 0.230537 0)
(1.06518 0.337273 0)
(1.02857 0.307935 0)
(0.952112 0.249931 0)
(0.866774 0.194722 0)
(0.785961 0.15009 0)
(0.714442 0.116323 0)
(0.653202 0.0913159 0)
(0.601487 0.0727584 0)
(0.557968 0.0588157 0)
(0.521295 0.0481661 0)
(0.490282 0.0398885 0)
(0.463944 0.0333447 0)
(0.441481 0.02809 0)
(0.42225 0.0238105 0)
(0.405732 0.0202812 0)
(0.39151 0.0173375 0)
(0.379244 0.0148575 0)
(0.368656 0.0127492 0)
(0.359516 0.0109421 0)
(0.351636 0.00938142 0)
(0.344855 0.00802408 0)
(0.339042 0.00683558 0)
(0.334083 0.00578803 0)
(0.329885 0.00485855 0)
(0.326368 0.00402812 0)
(0.323464 0.00328069 0)
(0.321116 0.00260247 0)
(0.319277 0.00198138 0)
(0.317909 0.00140661 0)
(0.31698 0.000868196 0)
(0.316467 0.000356612 0)
(0.316354 -0.000137622 0)
(0.316633 -0.000624427 0)
(0.317302 -0.00111478 0)
(0.318371 -0.00162155 0)
(0.31986 -0.00216074 0)
(0.321805 -0.00275341 0)
(0.324258 -0.00342873 0)
(0.3273 -0.00422912 0)
(0.331047 -0.00521909 0)
(0.33567 -0.00650096 0)
(0.341416 -0.00824336 0)
(0.34865 -0.0107337 0)
(0.357893 -0.0144744 0)
(0.369862 -0.0203523 0)
(0.38547 -0.0299099 0)
(0.405689 -0.0457506 0)
(0.43057 -0.0719467 0)
(0.456258 -0.112689 0)
(1.02485 0.170713 0)
(1.0701 0.31458 0)
(1.08052 0.338862 0)
(1.05259 0.31134 0)
(1.00162 0.267049 0)
(0.941437 0.222039 0)
(0.880405 0.182511 0)
(0.822877 0.149852 0)
(0.770722 0.123532 0)
(0.724426 0.102474 0)
(0.683788 0.0855985 0)
(0.648318 0.0719863 0)
(0.617435 0.060911 0)
(0.590567 0.0518141 0)
(0.567193 0.0442707 0)
(0.546852 0.0379578 0)
(0.529146 0.0326292 0)
(0.513735 0.0280949 0)
(0.500329 0.0242078 0)
(0.488679 0.0208521 0)
(0.478575 0.0179363 0)
(0.469837 0.0153867 0)
(0.462312 0.0131438 0)
(0.455867 0.0111587 0)
(0.450389 0.00939083 0)
(0.445784 0.00780605 0)
(0.441968 0.00637529 0)
(0.438873 0.00507332 0)
(0.436439 0.00387785 0)
(0.43462 0.00276874 0)
(0.433377 0.00172721 0)
(0.43268 0.000735199 0)
(0.432511 -0.000225454 0)
(0.432858 -0.00117387 0)
(0.433723 -0.0021313 0)
(0.435116 -0.00312265 0)
(0.437063 -0.0041787 0)
(0.439608 -0.00533944 0)
(0.442816 -0.00665918 0)
(0.446779 -0.00821452 0)
(0.451628 -0.0101172 0)
(0.457542 -0.0125351 0)
(0.464766 -0.0157254 0)
(0.473619 -0.0200888 0)
(0.484497 -0.0262518 0)
(0.49784 -0.035181 0)
(0.514008 -0.0483041 0)
(0.532995 -0.0675573 0)
(0.55369 -0.0951056 0)
(0.572682 -0.131825 0)
(1.01676 0.128188 0)
(1.05701 0.275119 0)
(1.08731 0.331706 0)
(1.09071 0.333618 0)
(1.07009 0.308319 0)
(1.03427 0.272656 0)
(0.990736 0.235655 0)
(0.944689 0.201449 0)
(0.899383 0.171491 0)
(0.85663 0.145945 0)
(0.817294 0.124421 0)
(0.781668 0.10636 0)
(0.749724 0.0911938 0)
(0.721268 0.0784157 0)
(0.69603 0.0675985 0)
(0.673714 0.0583911 0)
(0.654031 0.050509 0)
(0.636708 0.0437228 0)
(0.621496 0.0378469 0)
(0.608171 0.0327314 0)
(0.596535 0.0282538 0)
(0.586412 0.024314 0)
(0.577647 0.0208289 0)
(0.570107 0.0177294 0)
(0.563673 0.0149572 0)
(0.558244 0.0124626 0)
(0.553731 0.0102027 0)
(0.550059 0.00813978 0)
(0.547164 0.00624025 0)
(0.544994 0.00447339 0)
(0.543505 0.00281035 0)
(0.542666 0.00122312 0)
(0.542455 -0.000316573 0)
(0.542859 -0.00183861 0)
(0.543879 -0.00337612 0)
(0.545528 -0.00496764 0)
(0.547832 -0.00666027 0)
(0.550835 -0.00851396 0)
(0.554605 -0.010608 0)
(0.55923 -0.0130506 0)
(0.564831 -0.0159928 0)
(0.571566 -0.0196497 0)
(0.579625 -0.02433 0)
(0.58923 -0.0304782 0)
(0.600603 -0.0387256 0)
(0.6139 -0.0499397 0)
(0.62907 -0.065231 0)
(0.645618 -0.0858342 0)
(0.662221 -0.1127 0)
(0.676418 -0.145466 0)
(1.01072 0.0991316 0)
(1.04301 0.235169 0)
(1.0786 0.30702 0)
(1.09883 0.330721 0)
(1.09974 0.324345 0)
(1.08498 0.301816 0)
(1.05947 0.272328 0)
(1.02763 0.24131 0)
(0.992876 0.211623 0)
(0.957574 0.184562 0)
(0.923251 0.160546 0)
(0.890802 0.139538 0)
(0.860698 0.121294 0)
(0.833132 0.105494 0)
(0.808125 0.091813 0)
(0.785599 0.0799468 0)
(0.765421 0.0696274 0)
(0.74743 0.060624 0)
(0.731456 0.0527401 0)
(0.717333 0.0458097 0)
(0.704901 0.0396931 0)
(0.694011 0.0342721 0)
(0.684528 0.0294466 0)
(0.676329 0.0251313 0)
(0.669302 0.0212527 0)
(0.663352 0.0177474 0)
(0.658391 0.0145595 0)
(0.654345 0.0116395 0)
(0.65115 0.00894261 0)
(0.648752 0.00642731 0)
(0.647109 0.00405438 0)
(0.646186 0.00178545 0)
(0.645961 -0.000418387 0)
(0.646421 -0.00259821 0)
(0.647565 -0.00479933 0)
(0.649404 -0.00707398 0)
(0.651962 -0.00948484 0)
(0.65528 -0.01211 0)
(0.659415 -0.0150499 0)
(0.664442 -0.0184365 0)
(0.670458 -0.0224466 0)
(0.677576 -0.0273192 0)
(0.685918 -0.0333776 0)
(0.695599 -0.0410546 0)
(0.706682 -0.050914 0)
(0.719116 -0.0636535 0)
(0.73262 -0.0800524 0)
(0.74654 -0.100813 0)
(0.759701 -0.126221 0)
(0.770444 -0.155562 0)
(1.00696 0.078706 0)
(1.03212 0.199737 0)
(1.0665 0.27624 0)
(1.09406 0.313697 0)
(1.10825 0.322645 0)
(1.10913 0.313167 0)
(1.09906 0.293159 0)
(1.08101 0.268129 0)
(1.0578 0.241582 0)
(1.03174 0.215572 0)
(1.00457 0.191182 0)
(0.977506 0.168897 0)
(0.951362 0.148848 0)
(0.926633 0.130973 0)
(0.903603 0.115117 0)
(0.882404 0.101083 0)
(0.863069 0.0886687 0)
(0.845568 0.0776794 0)
(0.829831 0.0679367 0)
(0.815768 0.0592808 0)
(0.803275 0.0515707 0)
(0.792248 0.0446826 0)
(0.782582 0.0385081 0)
(0.77418 0.0329523 0)
(0.766948 0.0279317 0)
(0.760802 0.0233724 0)
(0.755665 0.0192083 0)
(0.751469 0.0153798 0)
(0.748155 0.011832 0)
(0.745674 0.00851385 0)
(0.743983 0.00537623 0)
(0.743051 0.00237092 0)
(0.742855 -0.000551157 0)
(0.743382 -0.00344172 0)
(0.744628 -0.00635745 0)
(0.746602 -0.00936284 0)
(0.749324 -0.0125339 0)
(0.752823 -0.0159632 0)
(0.757145 -0.019766 0)
(0.762343 -0.024089 0)
(0.768482 -0.0291201 0)
(0.775626 -0.0351019 0)
(0.783831 -0.0423441 0)
(0.793117 -0.0512346 0)
(0.803435 -0.0622404 0)
(0.814607 -0.0758842 0)
(0.826259 -0.0926749 0)
(0.837746 -0.112964 0)
(0.84813 -0.136713 0)
(0.856307 -0.163184 0)
(1.00471 0.0639287 0)
(1.02437 0.169811 0)
(1.05518 0.244955 0)
(1.08471 0.289745 0)
(1.1061 0.309618 0)
(1.11748 0.311213 0)
(1.11927 0.300616 0)
(1.11301 0.282688 0)
(1.10065 0.260962 0)
(1.08406 0.237827 0)
(1.06488 0.214793 0)
(1.04438 0.19275 0)
(1.02352 0.172168 0)
(1.00297 0.153251 0)
(0.983227 0.13604 0)
(0.964573 0.120478 0)
(0.947195 0.106461 0)
(0.931186 0.0938595 0)
(0.916576 0.0825385 0)
(0.903358 0.0723646 0)
(0.891494 0.0632118 0)
(0.88093 0.0549635 0)
(0.871605 0.0475135 0)
(0.863451 0.040765 0)
(0.856401 0.0346305 0)
(0.850391 0.0290305 0)
(0.845359 0.0238922 0)
(0.841248 0.0191487 0)
(0.83801 0.0147376 0)
(0.8356 0.0105995 0)
(0.833982 0.00667729 0)
(0.833128 0.002914 0)
(0.833016 -0.000748262 0)
(0.833633 -0.00437047 0)
(0.834974 -0.00801893 0)
(0.837044 -0.0117681 0)
(0.839855 -0.0157041 0)
(0.843427 -0.0199292 0)
(0.847788 -0.0245674 0)
(0.85297 -0.0297705 0)
(0.859003 -0.0357261 0)
(0.865909 -0.0426649 0)
(0.873687 -0.0508663 0)
(0.882288 -0.0606593 0)
(0.891592 -0.0724109 0)
(0.901362 -0.0864937 0)
(0.911209 -0.103219 0)
(0.920566 -0.122729 0)
(0.928715 -0.144843 0)
(0.934911 -0.168915 0)
(1.00335 0.0528704 0)
(1.01892 0.144905 0)
(1.04573 0.21562 0)
(1.0745 0.263237 0)
(1.09913 0.290072 0)
(1.11694 0.300133 0)
(1.12715 0.297753 0)
(1.13018 0.286847 0)
(1.12712 0.270592 0)
(1.11929 0.251375 0)
(1.10799 0.230891 0)
(1.09438 0.210278 0)
(1.07941 0.19026 0)
(1.06384 0.171265 0)
(1.04823 0.15352 0)
(1.03299 0.137115 0)
(1.01841 0.122056 0)
(1.00469 0.108298 0)
(0.99195 0.095764 0)
(0.980251 0.0843631 0)
(0.969623 0.073998 0)
(0.960066 0.0645709 0)
(0.951562 0.055987 0)
(0.944081 0.0481556 0)
(0.937584 0.0409917 0)
(0.932031 0.0344153 0)
(0.927379 0.0283513 0)
(0.923589 0.0227289 0)
(0.920621 0.0174807 0)
(0.918443 0.0125418 0)
(0.917026 0.0078488 0)
(0.916344 0.00333812 0)
(0.916381 -0.00105517 0)
(0.917123 -0.00539929 0)
(0.918566 -0.00976783 0)
(0.920709 -0.0142424 0)
(0.923558 -0.0189157 0)
(0.927121 -0.0238952 0)
(0.931411 -0.0293072 0)
(0.936437 -0.035302 0)
(0.942203 -0.0420578 0)
(0.948693 -0.0497844 0)
(0.955865 -0.0587237 0)
(0.963628 -0.0691437 0)
(0.971822 -0.0813227 0)
(0.980194 -0.0955158 0)
(0.988381 -0.1119 0)
(0.99591 -0.130499 0)
(1.00224 -0.151088 0)
(1.00685 -0.173131 0)
(1.00249 0.0443076 0)
(1.01505 0.124157 0)
(1.03815 0.189092 0)
(1.06495 0.236618 0)
(1.09042 0.267282 0)
(1.11174 0.283266 0)
(1.12753 0.287451 0)
(1.13744 0.282784 0)
(1.14186 0.271907 0)
(1.14155 0.256993 0)
(1.13745 0.239724 0)
(1.13048 0.221341 0)
(1.12148 0.202717 0)
(1.11117 0.184443 0)
(1.10014 0.166895 0)
(1.08884 0.150295 0)
(1.07764 0.134758 0)
(1.06678 0.120323 0)
(1.05647 0.106981 0)
(1.04683 0.0946918 0)
(1.03794 0.0833963 0)
(1.02985 0.0730238 0)
(1.02259 0.0634986 0)
(1.01616 0.0547432 0)
(1.01055 0.0466807 0)
(1.00575 0.0392356 0)
(1.00174 0.0323348 0)
(0.998487 0.0259071 0)
(0.99598 0.0198834 0)
(0.994192 0.0141959 0)
(0.993101 0.00877722 0)
(0.992691 0.00355954 0)
(0.992948 -0.00152689 0)
(0.993861 -0.00655521 0)
(0.995424 -0.0116038 0)
(0.997633 -0.0167584 0)
(1.00049 -0.0221147 0)
(1.00399 -0.0277814 0)
(1.00813 -0.0338827 0)
(1.01291 -0.0405616 0)
(1.01831 -0.0479816 0)
(1.02428 -0.0563277 0)
(1.03075 -0.0658029 0)
(1.03762 -0.0766199 0)
(1.0447 -0.0889839 0)
(1.05175 -0.103064 0)
(1.05845 -0.118949 0)
(1.06442 -0.136601 0)
(1.06924 -0.155796 0)
(1.07255 -0.176098 0)
(1.00193 0.0374797 0)
(1.01223 0.106747 0)
(1.03212 0.16548 0)
(1.05656 0.211135 0)
(1.08152 0.243326 0)
(1.10441 0.263055 0)
(1.1236 0.272103 0)
(1.13833 0.272567 0)
(1.14845 0.26652 0)
(1.15429 0.255811 0)
(1.1564 0.241984 0)
(1.15545 0.226263 0)
(1.1521 0.20958 0)
(1.14698 0.192617 0)
(1.14063 0.175855 0)
(1.13351 0.159619 0)
(1.12598 0.144116 0)
(1.11836 0.129463 0)
(1.11087 0.115719 0)
(1.10367 0.102896 0)
(1.0969 0.0909767 0)
(1.09064 0.0799223 0)
(1.08496 0.0696817 0)
(1.0799 0.0601957 0)
(1.07547 0.0513999 0)
(1.07168 0.043228 0)
(1.06854 0.0356121 0)
(1.06603 0.0284844 0)
(1.06416 0.0217769 0)
(1.06291 0.0154217 0)
(1.06226 0.00935006 0)
(1.06222 0.00349212 0)
(1.06277 -0.00222428 0)
(1.06391 -0.00787475 0)
(1.06562 -0.0135398 0)
(1.0679 -0.0193068 0)
(1.07075 -0.0252713 0)
(1.07416 -0.0315396 0)
(1.07812 -0.0382304 0)
(1.0826 -0.045476 0)
(1.08757 -0.0534229 0)
(1.09297 -0.0622303 0)
(1.09872 -0.072065 0)
(1.10468 -0.0830925 0)
(1.1107 -0.095461 0)
(1.11654 -0.109278 0)
(1.12194 -0.12458 0)
(1.12657 -0.141296 0)
(1.13012 -0.159224 0)
(1.13234 -0.178011 0)
(1.00154 0.0319032 0)
(1.01014 0.091993 0)
(1.02733 0.144582 0)
(1.04939 0.187341 0)
(1.07314 0.219453 0)
(1.09635 0.241191 0)
(1.1174 0.253559 0)
(1.13529 0.25797 0)
(1.14957 0.255973 0)
(1.16022 0.249063 0)
(1.16747 0.23858 0)
(1.17173 0.225652 0)
(1.17349 0.211196 0)
(1.17322 0.195924 0)
(1.1714 0.180376 0)
(1.16844 0.164944 0)
(1.16469 0.149905 0)
(1.16047 0.135443 0)
(1.156 0.121673 0)
(1.1515 0.108659 0)
(1.14711 0.0964218 0)
(1.14295 0.0849587 0)
(1.13911 0.0742448 0)
(1.13566 0.0642414 0)
(1.13263 0.0549005 0)
(1.13007 0.0461672 0)
(1.12799 0.0379826 0)
(1.1264 0.0302847 0)
(1.12531 0.0230094 0)
(1.12472 0.0160909 0)
(1.12464 0.0094618 0)
(1.12505 0.00305237 0)
(1.12597 -0.00320963 0)
(1.12737 -0.00940002 0)
(1.12927 -0.0155992 0)
(1.13164 -0.0218933 0)
(1.13449 -0.0283755 0)
(1.1378 -0.0351474 0)
(1.14156 -0.0423193 0)
(1.14572 -0.0500115 0)
(1.15024 -0.0583525 0)
(1.15507 -0.067477 0)
(1.1601 -0.0775201 0)
(1.16521 -0.088609 0)
(1.17024 -0.100849 0)
(1.17499 -0.114304 0)
(1.17924 -0.128979 0)
(1.18272 -0.144794 0)
(1.1852 -0.161567 0)
(1.18647 -0.179017 0)
(1.00126 0.0272582 0)
(1.00854 0.0793612 0)
(1.0235 0.126088 0)
(1.04334 0.165414 0)
(1.06559 0.196365 0)
(1.08837 0.218793 0)
(1.1102 0.233179 0)
(1.13002 0.240417 0)
(1.14718 0.241615 0)
(1.16144 0.237935 0)
(1.17278 0.230484 0)
(1.1814 0.220256 0)
(1.18759 0.208098 0)
(1.19169 0.194709 0)
(1.19408 0.180643 0)
(1.19509 0.16633 0)
(1.19504 0.152089 0)
(1.19421 0.138155 0)
(1.19285 0.124687 0)
(1.19115 0.111791 0)
(1.18928 0.0995264 0)
(1.18738 0.087921 0)
(1.18555 0.0769766 0)
(1.18388 0.0666763 0)
(1.18243 0.0569892 0)
(1.18125 0.0478744 0)
(1.18037 0.0392833 0)
(1.17984 0.0311619 0)
(1.17965 0.0234523 0)
(1.17984 0.016093 0)
(1.18041 0.0090195 0)
(1.18135 0.00216466 0)
(1.18269 -0.00454196 0)
(1.18442 -0.0111743 0)
(1.18653 -0.0178106 0)
(1.18902 -0.0245339 0)
(1.19189 -0.0314328 0)
(1.1951 -0.0386022 0)
(1.19865 -0.0461433 0)
(1.2025 -0.0541631 0)
(1.20659 -0.0627729 0)
(1.21085 -0.0720852 0)
(1.2152 -0.0822085 0)
(1.21952 -0.0932391 0)
(1.22365 -0.10525 0)
(1.22743 -0.118279 0)
(1.23067 -0.132309 0)
(1.23316 -0.147261 0)
(1.23471 -0.162979 0)
(1.23517 -0.179232 0)
(1.00105 0.0233244 0)
(1.0073 0.0684343 0)
(1.02042 0.109675 0)
(1.03827 0.145331 0)
(1.05893 0.174419 0)
(1.08087 0.196568 0)
(1.10277 0.211923 0)
(1.12361 0.221002 0)
(1.14267 0.224564 0)
(1.15953 0.223477 0)
(1.17403 0.218628 0)
(1.18617 0.210855 0)
(1.19609 0.20091 0)
(1.20401 0.189441 0)
(1.21016 0.176988 0)
(1.21483 0.163988 0)
(1.21826 0.150783 0)
(1.22071 0.137635 0)
(1.22239 0.124736 0)
(1.2235 0.112225 0)
(1.22419 0.100191 0)
(1.22461 0.08869 0)
(1.22488 0.077747 0)
(1.22509 0.0673658 0)
(1.22531 0.0575327 0)
(1.22562 0.0482208 0)
(1.22606 0.0393932 0)
(1.22667 0.0310051 0)
(1.22748 0.0230059 0)
(1.22852 0.01534 0)
(1.2298 0.00794774 0)
(1.23135 0.000765891 0)
(1.23316 -0.00627239 0)
(1.23524 -0.0132375 0)
(1.23761 -0.0202038 0)
(1.24024 -0.0272496 0)
(1.24313 -0.0344576 0)
(1.24627 -0.0419149 0)
(1.24963 -0.0497127 0)
(1.25318 -0.057945 0)
(1.25685 -0.0667071 0)
(1.26059 -0.0760922 0)
(1.26431 -0.0861864 0)
(1.2679 -0.0970621 0)
(1.27123 -0.10877 0)
(1.27415 -0.121327 0)
(1.2765 -0.134708 0)
(1.27813 -0.148836 0)
(1.27887 -0.16358 0)
(1.27862 -0.17875 0)
(1.00089 0.0199447 0)
(1.00633 0.0588869 0)
(1.01792 0.0950389 0)
(1.03402 0.126969 0)
(1.05314 0.153758 0)
(1.07404 0.174937 0)
(1.09557 0.190441 0)
(1.1168 0.200532 0)
(1.137 0.205702 0)
(1.15567 0.20658 0)
(1.17252 0.20385 0)
(1.18743 0.198199 0)
(1.20041 0.190272 0)
(1.21155 0.180647 0)
(1.22099 0.169826 0)
(1.22893 0.158231 0)
(1.23556 0.146207 0)
(1.24106 0.134027 0)
(1.24564 0.121903 0)
(1.24945 0.109993 0)
(1.25265 0.0984108 0)
(1.25538 0.087232 0)
(1.25775 0.0765025 0)
(1.25987 0.0662436 0)
(1.26181 0.0564573 0)
(1.26366 0.0471302 0)
(1.26546 0.0382366 0)
(1.26727 0.0297417 0)
(1.26912 0.0216027 0)
(1.27106 0.0137709 0)
(1.27311 0.00619253 0)
(1.27529 -0.00119044 0)
(1.27761 -0.00844001 0)
(1.28008 -0.0156218 0)
(1.28272 -0.0228049 0)
(1.28551 -0.0300618 0)
(1.28846 -0.0374683 0)
(1.29154 -0.0451033 0)
(1.29473 -0.0530474 0)
(1.29799 -0.0613827 0)
(1.30129 -0.0701897 0)
(1.30454 -0.0795449 0)
(1.30769 -0.0895163 0)
(1.31062 -0.100158 0)
(1.31322 -0.111503 0)
(1.31538 -0.123557 0)
(1.31696 -0.136291 0)
(1.31783 -0.149632 0)
(1.31787 -0.163469 0)
(1.31698 -0.177647 0)
(1.00077 0.0170032 0)
(1.00555 0.0504625 0)
(1.01588 0.081911 0)
(1.03048 0.110165 0)
(1.04816 0.1344 0)
(1.06794 0.154124 0)
(1.08886 0.169155 0)
(1.11006 0.179583 0)
(1.13084 0.185706 0)
(1.15069 0.187962 0)
(1.16924 0.186867 0)
(1.18627 0.182967 0)
(1.2017 0.176798 0)
(1.2155 0.168862 0)
(1.22775 0.159609 0)
(1.23854 0.149429 0)
(1.24801 0.138655 0)
(1.25629 0.127556 0)
(1.26353 0.116352 0)
(1.26989 0.10521 0)
(1.27547 0.094259 0)
(1.28042 0.0835884 0)
(1.28484 0.0732592 0)
(1.28883 0.0633071 0)
(1.29248 0.053747 0)
(1.29585 0.0445774 0)
(1.29902 0.0357833 0)
(1.30204 0.0273387 0)
(1.30496 0.0192094 0)
(1.30782 0.0113536 0)
(1.31065 0.00372417 0)
(1.31347 -0.00373109 0)
(1.31632 -0.0110684 0)
(1.3192 -0.0183477 0)
(1.32212 -0.0256321 0)
(1.32508 -0.0329874 0)
(1.32809 -0.0404821 0)
(1.33112 -0.0481862 0)
(1.33417 -0.0561706 0)
(1.33718 -0.0645056 0)
(1.34012 -0.073259 0)
(1.34294 -0.082493 0)
(1.34556 -0.0922608 0)
(1.3479 -0.102602 0)
(1.34987 -0.113539 0)
(1.35135 -0.125067 0)
(1.35224 -0.137156 0)
(1.35244 -0.149742 0)
(1.35185 -0.162728 0)
(1.3504 -0.175987 0)
(1.00067 0.0144118 0)
(1.00492 0.0429563 0)
(1.01421 0.0700559 0)
(1.02752 0.0947384 0)
(1.04391 0.116288 0)
(1.06259 0.134227 0)
(1.08277 0.14832 0)
(1.10367 0.158548 0)
(1.12467 0.165073 0)
(1.14522 0.168188 0)
(1.16494 0.168271 0)
(1.18356 0.165745 0)
(1.20089 0.161048 0)
(1.21685 0.154599 0)
(1.23142 0.146792 0)
(1.24465 0.137977 0)
(1.25659 0.12846 0)
(1.26733 0.118499 0)
(1.27698 0.108307 0)
(1.28565 0.0980544 0)
(1.29344 0.0878734 0)
(1.30047 0.0778631 0)
(1.30682 0.0680936 0)
(1.3126 0.0586105 0)
(1.31787 0.0494386 0)
(1.32273 0.040586 0)
(1.32723 0.0320465 0)
(1.33143 0.0238026 0)
(1.33539 0.0158274 0)
(1.33915 0.00808637 0)
(1.34275 0.000538865 0)
(1.34621 -0.00686099 0)
(1.34958 -0.0141633 0)
(1.35286 -0.0214217 0)
(1.35606 -0.0286929 0)
(1.3592 -0.0360356 0)
(1.36228 -0.0435107 0)
(1.36528 -0.0511795 0)
(1.36818 -0.0591035 0)
(1.37097 -0.0673423 0)
(1.37359 -0.0759523 0)
(1.37601 -0.0849836 0)
(1.37816 -0.0944775 0)
(1.37997 -0.104463 0)
(1.38135 -0.114952 0)
(1.38223 -0.125937 0)
(1.38252 -0.137386 0)
(1.38212 -0.149242 0)
(1.38097 -0.161423 0)
(1.37901 -0.173822 0)
(1.0006 0.012102 0)
(1.00441 0.0362018 0)
(1.01285 0.0592693 0)
(1.02506 0.0805119 0)
(1.04031 0.0993199 0)
(1.05797 0.115258 0)
(1.07736 0.128072 0)
(1.09782 0.137682 0)
(1.11877 0.144158 0)
(1.13969 0.147686 0)
(1.16019 0.148535 0)
(1.17994 0.147028 0)
(1.19872 0.143509 0)
(1.21639 0.138326 0)
(1.23286 0.131811 0)
(1.24811 0.12427 0)
(1.26215 0.115975 0)
(1.27502 0.107162 0)
(1.28679 0.098032 0)
(1.29752 0.0887479 0)
(1.3073 0.0794406 0)
(1.31621 0.0702108 0)
(1.32434 0.0611326 0)
(1.33176 0.0522571 0)
(1.33856 0.0436158 0)
(1.3448 0.0352233 0)
(1.35055 0.0270806 0)
(1.35587 0.0191768 0)
(1.36081 0.0114917 0)
(1.36543 0.00399731 0)
(1.36976 -0.00334078 0)
(1.37383 -0.0105622 0)
(1.37769 -0.0177108 0)
(1.38135 -0.0248338 0)
(1.38482 -0.0319811 0)
(1.38813 -0.0392046 0)
(1.39127 -0.0465572 0)
(1.39423 -0.0540922 0)
(1.39701 -0.0618618 0)
(1.39958 -0.0699162 0)
(1.40191 -0.0783015 0)
(1.40396 -0.0870579 0)
(1.40568 -0.0962166 0)
(1.407 -0.105798 0)
(1.40787 -0.115807 0)
(1.40821 -0.126234 0)
(1.40795 -0.137047 0)
(1.40702 -0.148196 0)
(1.40536 -0.159609 0)
(1.40292 -0.171196 0)
(1.00054 0.0100191 0)
(1.00401 0.030062 0)
(1.01173 0.0493737 0)
(1.02303 0.0673144 0)
(1.0373 0.0833753 0)
(1.05403 0.0971742 0)
(1.07265 0.108465 0)
(1.0926 0.117137 0)
(1.11335 0.123201 0)
(1.13441 0.126769 0)
(1.15537 0.128028 0)
(1.17592 0.127215 0)
(1.19578 0.124599 0)
(1.21476 0.120459 0)
(1.23275 0.115068 0)
(1.24965 0.108686 0)
(1.26544 0.101548 0)
(1.28011 0.0938632 0)
(1.29369 0.0858115 0)
(1.30621 0.0775436 0)
(1.31772 0.0691824 0)
(1.3283 0.0608245 0)
(1.33801 0.0525433 0)
(1.34691 0.0443912 0)
(1.35508 0.0364025 0)
(1.36257 0.0285958 0)
(1.36946 0.0209766 0)
(1.3758 0.0135392 0)
(1.38164 0.00626901 0)
(1.38703 -0.000856627 0)
(1.39203 -0.00786633 0)
(1.39666 -0.0147938 0)
(1.40096 -0.0216769 0)
(1.40495 -0.0285566 0)
(1.40867 -0.035476 0)
(1.41211 -0.0424801 0)
(1.4153 -0.0496143 0)
(1.41822 -0.056924 0)
(1.42087 -0.0644531 0)
(1.42323 -0.0722431 0)
(1.42528 -0.0803312 0)
(1.42698 -0.0887487 0)
(1.4283 -0.097519 0)
(1.42918 -0.106655 0)
(1.42958 -0.116158 0)
(1.42942 -0.126015 0)
(1.42866 -0.136196 0)
(1.42725 -0.146655 0)
(1.42513 -0.157331 0)
(1.42227 -0.168147 0)
(1.00049 0.00811843 0)
(1.00368 0.0244215 0)
(1.01084 0.0402135 0)
(1.02138 0.0549851 0)
(1.03481 0.0683213 0)
(1.05073 0.0798979 0)
(1.06865 0.0894921 0)
(1.08808 0.096985 0)
(1.10854 0.102354 0)
(1.12958 0.105659 0)
(1.15081 0.107025 0)
(1.17188 0.106626 0)
(1.19252 0.104663 0)
(1.2125 0.101356 0)
(1.23166 0.0969232 0)
(1.24988 0.0915779 0)
(1.26708 0.0855173 0)
(1.28323 0.0789193 0)
(1.2983 0.0719398 0)
(1.31233 0.0647115 0)
(1.32532 0.057344 0)
(1.33732 0.0499257 0)
(1.34839 0.0425243 0)
(1.35857 0.0351898 0)
(1.36793 0.0279559 0)
(1.37651 0.0208426 0)
(1.38439 0.0138576 0)
(1.39162 0.00699857 0)
(1.39824 0.00025471 0)
(1.40432 -0.00639193 0)
(1.40989 -0.0129651 0)
(1.41499 -0.0194932 0)
(1.41967 -0.0260083 0)
(1.42395 -0.0325453 0)
(1.42785 -0.0391413 0)
(1.4314 -0.0458342 0)
(1.4346 -0.0526625 0)
(1.43745 -0.0596641 0)
(1.43996 -0.0668753 0)
(1.44211 -0.0743295 0)
(1.44389 -0.0820563 0)
(1.44526 -0.0900794 0)
(1.4462 -0.0984155 0)
(1.44667 -0.107072 0)
(1.44662 -0.116047 0)
(1.44602 -0.125324 0)
(1.4448 -0.134876 0)
(1.44294 -0.144661 0)
(1.44039 -0.154625 0)
(1.43713 -0.164703 0)
(1.00045 0.00636253 0)
(1.00342 0.0191817 0)
(1.01012 0.0316508 0)
(1.02005 0.0433737 0)
(1.0328 0.0540215 0)
(1.04803 0.0633296 0)
(1.06534 0.0711079 0)
(1.08428 0.0772439 0)
(1.10443 0.0816993 0)
(1.12537 0.0845009 0)
(1.14671 0.0857296 0)
(1.16811 0.085507 0)
(1.18929 0.0839823 0)
(1.20999 0.0813206 0)
(1.23003 0.0776926 0)
(1.24926 0.0732662 0)
(1.26757 0.0681999 0)
(1.28489 0.0626388 0)
(1.30118 0.0567117 0)
(1.31641 0.0505296 0)
(1.33061 0.0441855 0)
(1.34379 0.0377549 0)
(1.35597 0.0312968 0)
(1.36721 0.0248551 0)
(1.37755 0.0184602 0)
(1.38705 0.0121304 0)
(1.39575 0.00587384 0)
(1.40371 -0.000310419 0)
(1.41098 -0.00643065 0)
(1.41761 -0.0125014 0)
(1.42364 -0.0185423 0)
(1.42913 -0.0245771 0)
(1.43409 -0.0306328 0)
(1.43858 -0.0367388 0)
(1.44261 -0.0429258 0)
(1.4462 -0.0492258 0)
(1.44938 -0.0556704 0)
(1.45214 -0.0622907 0)
(1.45448 -0.0691159 0)
(1.45641 -0.0761723 0)
(1.45791 -0.0834826 0)
(1.45896 -0.0910639 0)
(1.45954 -0.0989273 0)
(1.45961 -0.107076 0)
(1.45915 -0.115503 0)
(1.45811 -0.124194 0)
(1.45647 -0.13312 0)
(1.45419 -0.142245 0)
(1.45125 -0.151521 0)
(1.44761 -0.16089 0)
(1.00042 0.00471944 0)
(1.00323 0.0142565 0)
(1.00957 0.0235619 0)
(1.01902 0.0323393 0)
(1.03123 0.0403392 0)
(1.0459 0.0473566 0)
(1.06269 0.053239 0)
(1.08121 0.0578904 0)
(1.10106 0.061269 0)
(1.12185 0.0633828 0)
(1.14321 0.064281 0)
(1.16481 0.0640456 0)
(1.18634 0.0627817 0)
(1.20755 0.060609 0)
(1.22823 0.0576532 0)
(1.2482 0.0540403 0)
(1.26733 0.0498907 0)
(1.28554 0.045316 0)
(1.30274 0.0404159 0)
(1.31892 0.0352775 0)
(1.33404 0.0299739 0)
(1.34812 0.0245652 0)
(1.36118 0.0190983 0)
(1.37324 0.0136085 0)
(1.38435 0.00812005 0)
(1.39455 0.00264767 0)
(1.40388 -0.00280235 0)
(1.4124 -0.00823097 0)
(1.42016 -0.0136453 0)
(1.4272 -0.0190575 0)
(1.43358 -0.0244842 0)
(1.43932 -0.0299449 0)
(1.44448 -0.0354623 0)
(1.44908 -0.0410604 0)
(1.45316 -0.0467648 0)
(1.45674 -0.0526011 0)
(1.45983 -0.0585951 0)
(1.46245 -0.0647713 0)
(1.4646 -0.0711525 0)
(1.46629 -0.0777587 0)
(1.4675 -0.0846062 0)
(1.46822 -0.0917067 0)
(1.46844 -0.099066 0)
(1.46813 -0.106683 0)
(1.46727 -0.11455 0)
(1.46583 -0.12265 0)
(1.46378 -0.130956 0)
(1.46111 -0.139434 0)
(1.45778 -0.148042 0)
(1.45379 -0.156727 0)
(1.0004 0.00316106 0)
(1.00308 0.00956881 0)
(1.00917 0.0158337 0)
(1.01826 0.0217491 0)
(1.03006 0.0271393 0)
(1.04431 0.031858 0)
(1.0607 0.0357936 0)
(1.07888 0.0388723 0)
(1.09847 0.0410581 0)
(1.11911 0.0423491 0)
(1.14044 0.042773 0)
(1.16213 0.0423809 0)
(1.18387 0.0412415 0)
(1.20541 0.0394345 0)
(1.2265 0.0370452 0)
(1.24698 0.0341601 0)
(1.26668 0.0308625 0)
(1.2855 0.0272301 0)
(1.30335 0.023333 0)
(1.32019 0.0192323 0)
(1.33597 0.0149795 0)
(1.35069 0.0106169 0)
(1.36436 0.00617712 0)
(1.377 0.00168457 0)
(1.38864 -0.0028445 0)
(1.39932 -0.00740085 0)
(1.40909 -0.0119815 0)
(1.41798 -0.016589 0)
(1.42605 -0.0212303 0)
(1.43335 -0.0259163 0)
(1.43992 -0.030661 0)
(1.4458 -0.0354809 0)
(1.45103 -0.0403944 0)
(1.45565 -0.0454212 0)
(1.45969 -0.0505815 0)
(1.46317 -0.0558956 0)
(1.46612 -0.0613836 0)
(1.46855 -0.067064 0)
(1.47047 -0.0729538 0)
(1.47188 -0.0790672 0)
(1.47278 -0.0854149 0)
(1.47316 -0.0920037 0)
(1.47302 -0.0988351 0)
(1.47233 -0.105905 0)
(1.47108 -0.113202 0)
(1.46924 -0.120709 0)
(1.46681 -0.128402 0)
(1.46376 -0.136246 0)
(1.46007 -0.144204 0)
(1.45574 -0.152231 0)
(1.00039 0.00166205 0)
(1.00299 0.00504852 0)
(1.0089 0.00836115 0)
(1.01776 0.0114765 0)
(1.02928 0.0142887 0)
(1.04324 0.0167088 0)
(1.05935 0.0186676 0)
(1.07728 0.0201179 0)
(1.09668 0.0210345 0)
(1.11719 0.0214124 0)
(1.13846 0.021264 0)
(1.16017 0.020616 0)
(1.18201 0.0195059 0)
(1.20372 0.0179778 0)
(1.22505 0.0160799 0)
(1.24582 0.0138609 0)
(1.26585 0.0113684 0)
(1.28504 0.00864632 0)
(1.30327 0.00573438 0)
(1.32049 0.00266687 0)
(1.33665 -0.000527623 0)
(1.35175 -0.00382632 0)
(1.36577 -0.0072121 0)
(1.37873 -0.0106732 0)
(1.39067 -0.0142028 0)
(1.40161 -0.0177984 0)
(1.41159 -0.0214617 0)
(1.42066 -0.0251975 0)
(1.42886 -0.0290139 0)
(1.43624 -0.0329209 0)
(1.44285 -0.036931 0)
(1.44873 -0.0410579 0)
(1.45391 -0.0453163 0)
(1.45844 -0.0497217 0)
(1.46234 -0.0542898 0)
(1.46565 -0.0590359 0)
(1.46839 -0.0639746 0)
(1.47057 -0.0691192 0)
(1.47221 -0.0744811 0)
(1.47331 -0.0800693 0)
(1.47387 -0.0858898 0)
(1.4739 -0.0919445 0)
(1.47338 -0.0982313 0)
(1.47231 -0.104743 0)
(1.47067 -0.111467 0)
(1.46845 -0.118384 0)
(1.46564 -0.125471 0)
(1.46223 -0.132696 0)
(1.45819 -0.140024 0)
(1.45353 -0.147414 0)
(1.00038 0.000198918 0)
(1.00294 0.000629846 0)
(1.00876 0.00104486 0)
(1.01749 0.0013996 0)
(1.02887 0.00165592 0)
(1.04267 0.00178125 0)
(1.05862 0.00174967 0)
(1.07641 0.0015426 0)
(1.09568 0.00114874 0)
(1.1161 0.000563491 0)
(1.13731 -0.000211937 0)
(1.159 -0.00117166 0)
(1.18085 -0.00230637 0)
(1.2026 -0.00360451 0)
(1.224 -0.00505347 0)
(1.24485 -0.00664051 0)
(1.265 -0.00835358 0)
(1.2843 -0.0101819 0)
(1.30265 -0.0121166 0)
(1.32 -0.0141505 0)
(1.33628 -0.016279 0)
(1.35148 -0.0184994 0)
(1.36559 -0.0208112 0)
(1.37863 -0.023216 0)
(1.39061 -0.0257175 0)
(1.40157 -0.0283207 0)
(1.41155 -0.0310325 0)
(1.42059 -0.0338611 0)
(1.42873 -0.0368157 0)
(1.43603 -0.0399065 0)
(1.44252 -0.0431444 0)
(1.44824 -0.0465408 0)
(1.45325 -0.0501074 0)
(1.45757 -0.0538558 0)
(1.46124 -0.0577972 0)
(1.46429 -0.0619424 0)
(1.46674 -0.0663011 0)
(1.46861 -0.0708815 0)
(1.46991 -0.0756902 0)
(1.47066 -0.0807314 0)
(1.47086 -0.0860063 0)
(1.47051 -0.0915132 0)
(1.4696 -0.0972463 0)
(1.46814 -0.103196 0)
(1.46612 -0.109347 0)
(1.46352 -0.115681 0)
(1.46034 -0.122173 0)
(1.45656 -0.128795 0)
(1.45219 -0.135512 0)
(1.44722 -0.142289 0)
(1.00038 -0.00125077 0)
(1.00293 -0.00375038 0)
(1.00874 -0.00621152 0)
(1.01746 -0.0086007 0)
(1.02882 -0.0108892 0)
(1.04259 -0.0130534 0)
(1.05852 -0.0150757 0)
(1.07627 -0.0169454 0)
(1.0955 -0.0186589 0)
(1.11586 -0.020219 0)
(1.13702 -0.0216347 0)
(1.15864 -0.0229196 0)
(1.18042 -0.0240914 0)
(1.20209 -0.0251704 0)
(1.2234 -0.0261787 0)
(1.24416 -0.0271392 0)
(1.26419 -0.0280751 0)
(1.28337 -0.0290088 0)
(1.3016 -0.029962 0)
(1.31881 -0.0309553 0)
(1.33494 -0.0320078 0)
(1.34998 -0.0331375 0)
(1.36392 -0.0343607 0)
(1.37677 -0.035693 0)
(1.38855 -0.0371483 0)
(1.39931 -0.0387398 0)
(1.40906 -0.0404799 0)
(1.41786 -0.0423801 0)
(1.42575 -0.0444512 0)
(1.43278 -0.0467036 0)
(1.43899 -0.0491471 0)
(1.44442 -0.0517909 0)
(1.44912 -0.0546438 0)
(1.45312 -0.0577136 0)
(1.45645 -0.0610078 0)
(1.45914 -0.0645326 0)
(1.46123 -0.0682931 0)
(1.46272 -0.072293 0)
(1.46364 -0.0765343 0)
(1.464 -0.0810166 0)
(1.4638 -0.0857373 0)
(1.46305 -0.0906909 0)
(1.46174 -0.0958686 0)
(1.45989 -0.101258 0)
(1.45747 -0.106843 0)