/*--------------------------------*- C++ -*----------------------------------*\
| =========                 |                                                 |
| \\      /  F ield         | OpenFOAM: The Open Source CFD Toolbox           |
|  \\    /   O peration     | Version:  2306                                  |
|   \\  /    A nd           | Website:  www.openfoam.com                      |
|    \\/     M anipulation  |                                                 |
\*---------------------------------------------------------------------------*/
FoamFile
{
    version     2.0;
    format      ascii;
    arch        "LSB;label=32;scalar=64";
    class       volScalarField;
    location    "4.34";
    object      p;
}
// * * * * * * * * * * * * * * * * * * * * * * * * * * * * * * * * * * * * * //

dimensions      [0 2 -2 0 0 0 0];

internalField   nonuniform List<scalar> 
1900
(
0.0563961
0.032174
0.0117811
-0.00356089
-0.0145828
-0.0251411
-0.0355864
-0.0477565
-0.0603181
-0.074382
0.0271353
0.0189366
0.00761996
-0.00393391
-0.0149603
-0.0251506
-0.0355871
-0.0461044
-0.0576059
-0.0686635
0.0180426
0.0135518
0.00603591
-0.00333277
-0.0134171
-0.0233968
-0.0331767
-0.0427299
-0.0521576
-0.0612441
0.0123416
0.00926828
0.00361839
-0.00403007
-0.0128818
-0.0221221
-0.0313132
-0.0402272
-0.0488201
-0.0569795
0.0101177
0.00758234
0.00284373
-0.00380421
-0.0117827
-0.0203858
-0.02906
-0.0374826
-0.0455039
-0.0530349
0.0107521
0.0082714
0.00366081
-0.002804
-0.0105421
-0.0188452
-0.0271542
-0.035152
-0.0427144
-0.0498124
0.0142078
0.0112619
0.00598103
-0.00110163
-0.00916118
-0.0174471
-0.0254936
-0.0331233
-0.0403281
-0.0471427
0.0209069
0.0166116
0.00971431
0.00124609
-0.0075729
-0.015996
-0.0238273
-0.0311607
-0.0381454
-0.0448434
0.0310479
0.022949
0.0125136
0.00205358
-0.00725203
-0.0153618
-0.0227282
-0.0297737
-0.0366618
-0.0433524
0.0598982
0.0372261
0.0175199
0.00345836
-0.00619737
-0.0138903
-0.0211166
-0.0283311
-0.0354837
-0.0423691
-0.0975932
-0.0976267
-0.0976716
-0.0977257
-0.0977861
-0.0978523
-0.0979238
-0.0979997
-0.0980786
-0.0981589
-0.098239
-0.0983171
-0.0983917
-0.0984609
-0.0985232
-0.0985769
-0.0986205
-0.0986526
-0.0986719
-0.0986772
-0.0986676
-0.0986423
-0.0986005
-0.0985417
-0.0984654
-0.0983715
-0.0982596
-0.0981296
-0.0979814
-0.0978148
-0.0976298
-0.0974263
-0.0972041
-0.0969632
-0.0967035
-0.0964241
-0.0961238
-0.0957991
-0.0954444
-0.0950498
-0.0946005
-0.0940757
-0.093448
-0.0926844
-0.0917468
-0.0905939
-0.0891805
-0.0874567
-0.0853651
-0.0828404
-0.0798113
-0.0762039
-0.0719471
-0.0669834
-0.0612796
-0.0548332
-0.0476911
-0.0399224
-0.0316248
-0.0229304
-0.0139953
-0.00499451
0.00389554
0.0124971
0.0206431
0.0281849
0.0349918
0.0409697
0.0460447
0.0501834
0.053367
0.0556156
0.0569552
0.0574462
0.0571435
0.0561311
0.0544742
0.0522636
0.0495611
0.0464542
0.0429897
0.0392449
0.0352446
0.0310552
0.0266743
0.0221628
0.0174828
0.0127058
0.00773183
0.00269234
-0.0975888
-0.0976204
-0.0976475
-0.097689
-0.0977403
-0.0977999
-0.0978662
-0.0979376
-0.0980125
-0.0980894
-0.0981667
-0.0982425
-0.0983151
-0.0983828
-0.0984438
-0.0984965
-0.0985394
-0.098571
-0.0985899
-0.0985949
-0.098585
-0.0985592
-0.0985168
-0.0984571
-0.0983796
-0.0982839
-0.0981697
-0.0980368
-0.0978848
-0.0977137
-0.0975231
-0.0973126
-0.0970818
-0.09683
-0.0965565
-0.0962599
-0.0959385
-0.0955889
-0.0952059
-0.0947814
-0.0943038
-0.0937573
-0.0931212
-0.0923691
-0.0914692
-0.0903838
-0.0890688
-0.0874717
-0.0855286
-0.0831619
-0.0802838
-0.0768058
-0.07265
-0.0677753
-0.0621736
-0.0558341
-0.0487678
-0.0410417
-0.0327625
-0.0240686
-0.0151175
-0.00608964
0.00283504
0.0114724
0.0196486
0.0272273
0.0340583
0.0400576
0.045149
0.0493046
0.0525023
0.0547653
0.0561167
0.0566226
0.0563336
0.0553406
0.0537039
0.0515231
0.0488498
0.045782
0.0423531
0.0386555
0.0346967
0.0305629
0.02623
0.0217806
0.0171521
0.012436
0.00753852
0.00259295
-0.0974712
-0.0975524
-0.097598
-0.0976515
-0.0977078
-0.0977694
-0.0978373
-0.0979106
-0.0979878
-0.0980674
-0.0981476
-0.0982266
-0.0983026
-0.0983737
-0.0984382
-0.0984943
-0.0985404
-0.0985749
-0.0985964
-0.0986036
-0.0985954
-0.0985708
-0.098529
-0.0984695
-0.0983917
-0.0982952
-0.0981799
-0.0980457
-0.0978925
-0.0977203
-0.097529
-0.0973182
-0.0970874
-0.0968355
-0.0965616
-0.0962641
-0.0959405
-0.0955876
-0.0952005
-0.0947729
-0.0942964
-0.0937611
-0.0931532
-0.092454
-0.0916375
-0.0906672
-0.0894945
-0.0880596
-0.0862867
-0.084084
-0.0813554
-0.0780331
-0.0740209
-0.0692433
-0.063666
-0.0573095
-0.0502146
-0.0424618
-0.0341553
-0.0254325
-0.0164568
-0.00742706
0.00148492
0.0101094
0.0182679
0.0258212
0.0326271
0.0385997
0.0436612
0.0477871
0.0509558
0.0531958
0.0545295
0.0550286
0.0547416
0.0537645
0.0521534
0.0500126
0.0473897
0.044387
0.0410341
0.0374261
0.0335685
0.0295473
0.0253402
0.0210262
0.0165541
0.0120041
0.00730252
0.00254141
-0.0975532
-0.0976269
-0.0976312
-0.0976571
-0.0977029
-0.0977651
-0.0978385
-0.0979193
-0.0980049
-0.098093
-0.0981816
-0.0982686
-0.098352
-0.0984297
-0.0985001
-0.0985612
-0.0986115
-0.0986493
-0.0986732
-0.098682
-0.0986745
-0.0986499
-0.0986072
-0.0985461
-0.0984659
-0.0983665
-0.0982477
-0.0981096
-0.0979525
-0.0977764
-0.0975815
-0.0973676
-0.097134
-0.0968793
-0.0966022
-0.096301
-0.0959739
-0.0956186
-0.0952321
-0.09481
-0.0943459
-0.0938323
-0.0932619
-0.0926207
-0.0918838
-0.0910116
-0.0899482
-0.0886306
-0.0869798
-0.0848971
-0.0822725
-0.079005
-0.0750333
-0.0702919
-0.064755
-0.0584362
-0.0513775
-0.0436659
-0.0354136
-0.0267633
-0.0178842
-0.0089606
-0.000175799
0.00830164
0.0162996
0.0236811
0.0303157
0.0361208
0.0410247
0.0450061
0.0480493
0.0501866
0.0514451
0.0518977
0.0515962
0.0506353
0.0490728
0.0470095
0.0444953
0.0416267
0.0384365
0.0350115
0.031363
0.0275666
0.0236102
0.0195605
0.0153827
0.0111382
0.00677052
0.00234142
-0.0972267
-0.0974321
-0.097523
-0.0976272
-0.0977261
-0.0978195
-0.0979122
-0.0980075
-0.0981052
-0.0982036
-0.0983009
-0.0983951
-0.0984844
-0.0985668
-0.0986406
-0.098704
-0.0987555
-0.0987935
-0.0988165
-0.0988233
-0.0988129
-0.0987843
-0.098737
-0.0986706
-0.0985847
-0.0984793
-0.0983544
-0.0982106
-0.0980483
-0.0978679
-0.0976697
-0.0974537
-0.097219
-0.0969639
-0.096686
-0.0963846
-0.0960582
-0.0957049
-0.0953226
-0.0949083
-0.0944564
-0.0939594
-0.0934158
-0.0928111
-0.0921188
-0.0912958
-0.0902779
-0.0889918
-0.0873529
-0.0852738
-0.0826491
-0.0793894
-0.0754198
-0.0706914
-0.0651832
-0.0589147
-0.051937
-0.0443403
-0.0362428
-0.0277903
-0.0191491
-0.0104965
-0.00201271
0.00613679
0.0137929
0.0208251
0.0271176
0.0325944
0.0371963
0.040907
0.0437211
0.0456739
0.0468005
0.0471721
0.0468459
0.0459108
0.0444285
0.0424906
0.0401509
0.0374944
0.0345592
0.0314185
0.0280914
0.024639
0.0210609
0.0174076
0.0136605
0.00986296
0.00598053
0.00205774
-0.0980585
-0.0980812
-0.0979801
-0.0979352
-0.0979459
-0.0980039
-0.0980919
-0.098193
-0.0982962
-0.0983982
-0.098497
-0.0985907
-0.0986777
-0.0987564
-0.0988253
-0.098883
-0.0989282
-0.0989593
-0.0989751
-0.0989742
-0.0989559
-0.0989193
-0.0988641
-0.0987902
-0.0986973
-0.0985852
-0.0984541
-0.0983048
-0.098138
-0.0979542
-0.0977537
-0.0975363
-0.0973009
-0.0970454
-0.0967668
-0.0964681
-0.0961462
-0.0957983
-0.0954222
-0.0950151
-0.0945724
-0.0940835
-0.0935329
-0.0929115
-0.0921918
-0.0913294
-0.0902616
-0.0889171
-0.0872109
-0.0850556
-0.0823564
-0.079032
-0.0750172
-0.0702752
-0.0647955
-0.0586051
-0.0517633
-0.0443657
-0.0365343
-0.0284158
-0.0201714
-0.01197
-0.00397878
0.00364712
0.0107663
0.0172608
0.0230332
0.0280187
0.0321749
0.0354934
0.0379823
0.0396796
0.0406294
0.0408997
0.0405524
0.0396677
0.0383097
0.0365578
0.0344679
0.0321105
0.029527
0.0267755
0.0238811
0.020889
0.0178082
0.0146734
0.0114795
0.00825441
0.00498283
0.0016932
-0.0967314
-0.0973783
-0.0975813
-0.097838
-0.0980537
-0.0982169
-0.0983394
-0.0984405
-0.0985336
-0.098622
-0.0987062
-0.0987849
-0.0988569
-0.0989208
-0.0989756
-0.0990198
-0.0990524
-0.0990722
-0.0990776
-0.0990671
-0.09904
-0.0989954
-0.0989329
-0.0988524
-0.0987534
-0.0986355
-0.0984994
-0.0983468
-0.0981778
-0.0979926
-0.0977912
-0.0975737
-0.0973389
-0.0970846
-0.0968057
-0.0964975
-0.0961633
-0.095801
-0.0954059
-0.0949728
-0.0944946
-0.0939614
-0.0933587
-0.0926676
-0.0918567
-0.0908813
-0.0896809
-0.0881857
-0.0863166
-0.0839943
-0.08114
-0.0776873
-0.0735861
-0.0688132
-0.0633715
-0.0572987
-0.0506626
-0.0435637
-0.036125
-0.0284902
-0.0208117
-0.0132463
-0.00594168
0.000966064
0.00735987
0.0131411
0.0182356
0.0225944
0.0261946
0.0290375
0.0311445
0.0325555
0.0333211
0.0335033
0.0331654
0.0323764
0.0311993
0.0296994
0.0279312
0.0259498
0.0237972
0.0215161
0.0191347
0.0166837
0.0141786
0.01164
0.00907299
0.00649212
0.00389642
0.00130119
-0.101445
-0.100065
-0.0994366
-0.0990034
-0.098777
-0.0986878
-0.0986761
-0.0987007
-0.0987397
-0.0987856
-0.0988351
-0.098885
-0.0989331
-0.0989777
-0.0990167
-0.0990483
-0.0990709
-0.0990817
-0.0990783
-0.0990602
-0.0990269
-0.0989777
-0.0989125
-0.0988305
-0.0987306
-0.0986118
-0.0984721
-0.0983121
-0.0981342
-0.0979386
-0.0977242
-0.0974894
-0.0972322
-0.0969498
-0.0966386
-0.0962953
-0.0959178
-0.0955021
-0.0950422
-0.094531
-0.0939586
-0.0933125
-0.0925747
-0.0917217
-0.0907206
-0.0895285
-0.0880905
-0.0863442
-0.0842218
-0.0816574
-0.0785901
-0.0749739
-0.0707777
-0.0659949
-0.0606432
-0.0547706
-0.0484503
-0.0417833
-0.0348875
-0.027898
-0.020952
-0.0141882
-0.00773228
-0.00169544
0.00383485
0.00878508
0.013107
0.0167705
0.0197709
0.0221184
0.0238435
0.0249849
0.0255944
0.0257252
0.0254377
0.0247881
0.0238355
0.0226303
0.021224
0.0196565
0.0179686
0.0161886
0.0143465
0.0124597
0.0105487
0.00862187
0.00669261
0.00476292
0.0028416
0.000928064
-0.095602
-0.0966897
-0.0975274
-0.0981395
-0.0984565
-0.0985752
-0.0986098
-0.0986235
-0.0986394
-0.0986697
-0.0987091
-0.09875
-0.0987908
-0.0988299
-0.0988654
-0.0988952
-0.0989184
-0.0989346
-0.0989392
-0.0989263
-0.0988945
-0.0988432
-0.0987723
-0.0986822
-0.0985716
-0.0984382
-0.0982799
-0.0980963
-0.0978876
-0.0976532
-0.0973917
-0.0971009
-0.0967778
-0.0964189
-0.0960198
-0.0955757
-0.0950817
-0.094532
-0.0939197
-0.0932356
-0.092468
-0.0916021
-0.0906188
-0.0894949
-0.0881999
-0.0866961
-0.0849385
-0.0828775
-0.0804614
-0.0776415
-0.0743753
-0.0706322
-0.0663997
-0.0616888
-0.0565314
-0.0509843
-0.0451228
-0.039043
-0.0328515
-0.0266655
-0.0205987
-0.014763
-0.00925476
-0.0041608
0.000456779
0.00454946
0.00809342
0.0110749
0.0135028
0.0153918
0.0167759
0.0176889
0.0181801
0.0182918
0.0180795
0.0175866
0.0168677
0.01596
0.0149115
0.0137486
0.0125107
0.0112128
0.00988648
0.00853632
0.00718798
0.00583722
0.00450625
0.00318401
0.00189085
0.000608543
-0.11828
-0.10336
-0.101434
-0.0999573
-0.0990425
-0.0986141
-0.0984395
-0.0983775
-0.0983587
-0.0983622
-0.0984009
-0.0984631
-0.0985281
-0.0985888
-0.0986435
-0.0986908
-0.0987278
-0.0987509
-0.0987551
-0.0987351
-0.0986882
-0.0986132
-0.0985108
-0.0983815
-0.0982233
-0.0980331
-0.0978079
-0.0975454
-0.0972441
-0.0969026
-0.0965189
-0.096091
-0.0956158
-0.0950895
-0.0945074
-0.0938645
-0.0931552
-0.0923733
-0.0915115
-0.0905609
-0.08951
-0.0883445
-0.087046
-0.085591
-0.0839529
-0.0821022
-0.0800062
-0.0776304
-0.0749414
-0.0719098
-0.0685138
-0.0647434
-0.0606033
-0.0561157
-0.0513188
-0.0462678
-0.0410305
-0.0356888
-0.0303307
-0.0250499
-0.0199347
-0.0150699
-0.0105247
-0.00636156
-0.00262199
0.000665344
0.0034933
0.00585851
0.007776
0.00926117
0.0103481
0.0110655
0.0114587
0.0115612
0.0114229
0.011077
0.0105734
0.00993855
0.00921727
0.00842457
0.00759837
0.00674129
0.00588631
0.00502464
0.00418751
0.00335612
0.00256335
0.00178135
0.00104638
0.00031753
-0.0858373
-0.092294
-0.0948017
-0.0956449
-0.0960925
-0.0964942
-0.0968659
-0.0971781
-0.0974483
-0.0976836
-0.097886
-0.0980581
-0.0982029
-0.0983242
-0.0984242
-0.0985025
-0.098556
-0.0985799
-0.0985692
-0.0985193
-0.0984269
-0.0982905
-0.0981095
-0.0978834
-0.0976112
-0.0972907
-0.09692
-0.0964973
-0.0960212
-0.0954903
-0.0949026
-0.0942546
-0.0935427
-0.0927635
-0.0919134
-0.0909881
-0.0899828
-0.088892
-0.0877092
-0.0864267
-0.0850349
-0.0835224
-0.0818751
-0.0800769
-0.0781098
-0.0759549
-0.073592
-0.0710012
-0.0681647
-0.0650693
-0.0617081
-0.0580833
-0.0542075
-0.0501051
-0.0458119
-0.0413745
-0.0368479
-0.0322968
-0.0277903
-0.0234009
-0.0191966
-0.0152411
-0.0115854
-0.00827025
-0.00531884
-0.00274554
-0.000549103
0.00127378
0.00274031
0.00386709
0.00468686
0.00522669
0.00552816
0.00562006
0.00554648
0.00533304
0.00502329
0.00463534
0.00420927
0.00375141
0.00329692
0.00283797
0.00240706
0.00198246
0.00159951
0.00122379
0.000899519
0.000577446
0.000313481
3.79897e-05
-0.0799061
-0.0876823
-0.0916643
-0.0930893
-0.0935243
-0.0938621
-0.0943607
-0.094977
-0.0955976
-0.096148
-0.096605
-0.0969771
-0.0972824
-0.0975354
-0.0977432
-0.097906
-0.0980196
-0.0980778
-0.0980746
-0.098005
-0.0978656
-0.0976547
-0.0973717
-0.0970169
-0.0965908
-0.0960939
-0.0955263
-0.0948883
-0.0941798
-0.0934007
-0.0925503
-0.0916272
-0.09063
-0.0895567
-0.0884051
-0.0871727
-0.0858562
-0.0844517
-0.0829547
-0.0813601
-0.0796617
-0.0778522
-0.0759237
-0.0738668
-0.0716716
-0.0693277
-0.066824
-0.0641502
-0.0612986
-0.058265
-0.0550505
-0.0516625
-0.0481159
-0.0444344
-0.0406506
-0.036806
-0.0329483
-0.0291288
-0.0253997
-0.0218136
-0.0184206
-0.0152657
-0.012384
-0.00980162
-0.00753267
-0.00558285
-0.00394414
-0.00260295
-0.00153795
-0.000728955
-0.000145794
0.000238797
0.000462817
0.000555025
0.000553229
0.000478146
0.000362074
0.000215772
6.89747e-05
-7.73152e-05
-0.000195488
-0.000298654
-0.000359903
-0.000408163
-0.000409969
-0.000410119
-0.000357559
-0.000320071
-0.000222125
-0.0001665
-0.0697072
-0.0768961
-0.0822396
-0.0857292
-0.0878735
-0.0893302
-0.0905477
-0.091705
-0.0928145
-0.0938308
-0.0947162
-0.0954607
-0.0960748
-0.0965755
-0.0969762
-0.0972834
-0.0974976
-0.0976159
-0.0976344
-0.0975499
-0.0973608
-0.097067
-0.09667
-0.0961722
-0.0955766
-0.0948867
-0.0941055
-0.093236
-0.0922808
-0.091242
-0.0901215
-0.0889201
-0.0876384
-0.0862761
-0.0848325
-0.0833063
-0.0816961
-0.0799997
-0.0782147
-0.0763387
-0.0743687
-0.0723017
-0.0701343
-0.0678634
-0.0654857
-0.0629981
-0.060398
-0.057684
-0.0548558
-0.0519153
-0.0488673
-0.0457208
-0.0424903
-0.0391968
-0.03587
-0.0325472
-0.0292715
-0.0260879
-0.0230393
-0.0201631
-0.0174889
-0.0150394
-0.0128315
-0.0108804
-0.00919768
-0.00778602
-0.00663068
-0.00570313
-0.00497056
-0.00440634
-0.00398585
-0.00368696
-0.00347915
-0.00333349
-0.00321906
-0.00311972
-0.0030194
-0.00291658
-0.00279878
-0.00266878
-0.00251152
-0.00233749
-0.00212947
-0.00190998
-0.00165282
-0.00139725
-0.00109907
-0.000826991
-0.000500588
-0.000245018
-0.064493
-0.0711166
-0.0765914
-0.0808127
-0.0839039
-0.0861755
-0.0879685
-0.0895215
-0.0909425
-0.0922491
-0.0934212
-0.0944382
-0.0952938
-0.0959937
-0.0965479
-0.0969646
-0.0972474
-0.0973965
-0.0974101
-0.0972865
-0.0970257
-0.0966294
-0.0961011
-0.0954457
-0.0946687
-0.0937762
-0.092774
-0.0916677
-0.0904628
-0.089164
-0.0877753
-0.0862999
-0.0847399
-0.0830966
-0.0813707
-0.0795622
-0.077671
-0.075697
-0.0736399
-0.0715001
-0.0692778
-0.0669738
-0.0645897
-0.0621274
-0.0595897
-0.0569806
-0.0543048
-0.0515678
-0.0487757
-0.0459353
-0.0430543
-0.040142
-0.0372103
-0.0342761
-0.0313633
-0.028505
-0.0257425
-0.0231215
-0.0206824
-0.0184514
-0.0164345
-0.014622
-0.013002
-0.0115767
-0.0103617
-0.00936664
-0.00857522
-0.00794472
-0.00742238
-0.00697318
-0.00658478
-0.00625476
-0.0059721
-0.00571677
-0.00546373
-0.00519678
-0.00490643
-0.00459585
-0.00426821
-0.00393309
-0.00358963
-0.0032441
-0.00288822
-0.00253036
-0.00215623
-0.00178468
-0.00138999
-0.00101532
-0.000603338
-0.000258214
-0.0599924
-0.0662689
-0.0717365
-0.0762996
-0.0799653
-0.0828668
-0.0852142
-0.0872072
-0.0889786
-0.0905867
-0.0920392
-0.0933226
-0.0944234
-0.0953366
-0.0960643
-0.0966114
-0.0969818
-0.0971772
-0.0971979
-0.0970444
-0.0967188
-0.0962255
-0.095571
-0.0947627
-0.0938092
-0.0927189
-0.0915004
-0.0901622
-0.0887125
-0.0871592
-0.0855089
-0.0837669
-0.0819373
-0.0800227
-0.0780253
-0.0759465
-0.0737877
-0.0715505
-0.0692371
-0.0668505
-0.0643946
-0.0618743
-0.0592954
-0.056665
-0.0539914
-0.0512846
-0.0485562
-0.0458188
-0.0430855
-0.040368
-0.0376763
-0.0350189
-0.0324044
-0.0298424
-0.0273463
-0.0249366
-0.0226486
-0.02053
-0.0186267
-0.0169618
-0.0155162
-0.014239
-0.013082
-0.0120341
-0.0111178
-0.0103568
-0.00974964
-0.00925391
-0.00880341
-0.00835111
-0.00788942
-0.00743575
-0.00700732
-0.00660835
-0.00623068
-0.00586373
-0.00549582
-0.00511988
-0.00473271
-0.00433764
-0.00393631
-0.00353321
-0.00312633
-0.0027192
-0.00230621
-0.00189415
-0.00147283
-0.00106124
-0.000632545
-0.000251475
-0.0564267
-0.0625026
-0.0679539
-0.072703
-0.0767266
-0.0800786
-0.0828806
-0.085278
-0.0873914
-0.0892925
-0.0910074
-0.0925336
-0.0938581
-0.0949698
-0.0958629
-0.0965366
-0.096992
-0.0972301
-0.097252
-0.0970598
-0.0966581
-0.0960549
-0.0952612
-0.0942887
-0.0931494
-0.0918543
-0.0904147
-0.0888419
-0.0871468
-0.0853399
-0.0834303
-0.081426
-0.0793329
-0.0771559
-0.0748984
-0.0725636
-0.0701544
-0.0676745
-0.0651284
-0.0625222
-0.0598637
-0.0571624
-0.0544291
-0.0516757
-0.0489151
-0.0461614
-0.0434318
-0.0407465
-0.0381254
-0.0355835
-0.0331301
-0.0307693
-0.0285039
-0.0263357
-0.024265
-0.0222908
-0.0204301
-0.0187245
-0.017223
-0.0159593
-0.0149034
-0.0139794
-0.0131199
-0.0123011
-0.011534
-0.0108292
-0.0102091
-0.00967646
-0.00919639
-0.00873437
-0.00828636
-0.00784794
-0.00741047
-0.00697072
-0.00652824
-0.0060838
-0.00564028
-0.00520269
-0.00477409
-0.00435508
-0.00394262
-0.00353584
-0.00313105
-0.00272636
-0.00231763
-0.00190598
-0.00148767
-0.00106941
-0.000645422
-0.000255425
-0.0535652
-0.0595405
-0.0649869
-0.0698388
-0.0740757
-0.0777301
-0.080879
-0.0836211
-0.0860497
-0.088231
-0.0901978
-0.0919552
-0.0934929
-0.0947962
-0.0958529
-0.0966552
-0.0971994
-0.0974838
-0.097509
-0.0972777
-0.0967967
-0.0960775
-0.0951372
-0.0939942
-0.0926649
-0.0911641
-0.0895059
-0.0877045
-0.0857737
-0.0837267
-0.0815755
-0.0793304
-0.0769997
-0.0745904
-0.0721078
-0.069557
-0.0669426
-0.0642706
-0.0615478
-0.0587834
-0.0559889
-0.0531788
-0.0503695
-0.0475789
-0.0448231
-0.0421153
-0.039474
-0.036924
-0.0344874
-0.0321761
-0.0299922
-0.0279294
-0.0259813
-0.024146
-0.0224212
-0.0208084
-0.019303
-0.017922
-0.016693
-0.0156173
-0.0146782
-0.0138484
-0.0130976
-0.01241
-0.0117842
-0.0112292
-0.0106907
-0.0101226
-0.00951909
-0.00891487
-0.00833945
-0.00780821
-0.00732499
-0.00688103
-0.00645816
-0.00604237
-0.00562674
-0.00520965
-0.00479183
-0.00437558
-0.00396279
-0.00355307
-0.00314465
-0.00273615
-0.00232553
-0.00191184
-0.00149355
-0.00107414
-0.000658761
-0.000252128
-0.0512153
-0.05717
-0.0626238
-0.0675325
-0.0718965
-0.0757536
-0.0791642
-0.0821957
-0.084912
-0.0873632
-0.0895784
-0.0915651
-0.0933141
-0.0948088
-0.0960313
-0.0969671
-0.097606
-0.0979428
-0.097977
-0.0977123
-0.0971574
-0.0963273
-0.0952445
-0.0939343
-0.0924201
-0.0907236
-0.0888647
-0.0868621
-0.084733
-0.0824934
-0.0801569
-0.0777353
-0.0752381
-0.0726734
-0.0700477
-0.067367
-0.0646377
-0.0618666
-0.0590623
-0.0562354
-0.0533996
-0.0505717
-0.0477719
-0.0450228
-0.0423449
-0.0397528
-0.0372687
-0.0349126
-0.0326947
-0.0306132
-0.0286577
-0.0268099
-0.0250517
-0.0233787
-0.021809
-0.0203732
-0.0191053
-0.0180197
-0.0170966
-0.0162473
-0.0153751
-0.0144488
-0.0134947
-0.0125857
-0.0117927
-0.0111097
-0.0105168
-0.00997324
-0.00943809
-0.0089068
-0.00838515
-0.00788468
-0.00741183
-0.00695936
-0.00651873
-0.00608433
-0.00565394
-0.00522772
-0.00480612
-0.00438825
-0.00397377
-0.00356201
-0.00315169
-0.0027415
-0.00233003
-0.00191615
-0.001499
-0.00108225
-0.0006722
-0.000250466
-0.0497171
-0.0556408
-0.0610641
-0.0659786
-0.0704089
-0.074396
-0.0779897
-0.0812386
-0.0841852
-0.0868638
-0.0892943
-0.0914809
-0.0934142
-0.0950758
-0.096444
-0.097498
-0.0982219
-0.0986056
-0.0986466
-0.0983505
-0.0977306
-0.0968065
-0.0956008
-0.0941406
-0.0924579
-0.0905849
-0.0885518
-0.0863849
-0.0841065
-0.081735
-0.0792852
-0.0767689
-0.074195
-0.0715706
-0.0689014
-0.0661926
-0.0634496
-0.0606785
-0.0578869
-0.0550847
-0.0522845
-0.0495026
-0.0467591
-0.0440792
-0.041491
-0.0390284
-0.0367177
-0.0345728
-0.0325924
-0.0307568
-0.0290315
-0.0273773
-0.0257459
-0.0241137
-0.0224896
-0.0209148
-0.019448
-0.0181485
-0.0170205
-0.016029
-0.0151263
-0.0142656
-0.0134385
-0.012654
-0.0119288
-0.0112765
-0.0106747
-0.0100966
-0.00952865
-0.00897227
-0.00843573
-0.00792547
-0.00744147
-0.0069798
-0.00653399
-0.00609808
-0.00566822
-0.00524261
-0.00482073
-0.00440235
-0.003987
-0.0035739
-0.00316202
-0.0027504
-0.00233813
-0.0019243
-0.00150848
-0.00109351
-0.000682549
-0.000251502
-0.0488215
-0.0547651
-0.0601913
-0.0651267
-0.0696113
-0.0736881
-0.0774012
-0.0807943
-0.0839044
-0.0867538
-0.0893505
-0.0916904
-0.0937598
-0.0955388
-0.0970049
-0.0981372
-0.0989191
-0.0993405
-0.0993998
-0.0991042
-0.0984696
-0.0975194
-0.0962826
-0.0947913
-0.0930785
-0.0911768
-0.0891166
-0.0869254
-0.0846266
-0.0822396
-0.0797797
-0.0772589
-0.0746864
-0.0720691
-0.0694127
-0.066722
-0.0640016
-0.0612569
-0.0584944
-0.0557222
-0.0529513
-0.0501954
-0.0474717
-0.0448008
-0.0422063
-0.039712
-0.0373391
-0.0351017
-0.0330036
-0.0310382
-0.0291938
-0.0274353
-0.0257256
-0.0240631
-0.0224583
-0.020944
-0.0195606
-0.0183308
-0.0172519
-0.0162757
-0.0153479
-0.0144427
-0.0135644
-0.0127381
-0.0119871
-0.01131
-0.0106901
-0.0101034
-0.00953575
-0.00898569
-0.00845691
-0.00795249
-0.00747147
-0.00700938
-0.0065609
-0.00612182
-0.00568956
-0.00526275
-0.00484055
-0.00442222
-0.00400696
-0.0035938
-0.00318172
-0.00276981
-0.00235744
-0.00194414
-0.00152964
-0.00111438
-0.000697375
-0.000258159
)
;

boundaryField
{
    fixedWalls
    {
        type            zeroGradient;
    }
    inflowWall
    {
        type            zeroGradient;
    }
    outflowWall
    {
        type            fixedValue;
        value           uniform 0;
    }
    frontAndBack
    {
        type            empty;
    }
}


// ************************************************************************* //
