/*--------------------------------*- C++ -*----------------------------------*\
| =========                 |                                                 |
| \\      /  F ield         | OpenFOAM: The Open Source CFD Toolbox           |
|  \\    /   O peration     | Version:  2306                                  |
|   \\  /    A nd           | Website:  www.openfoam.com                      |
|    \\/     M anipulation  |                                                 |
\*---------------------------------------------------------------------------*/
FoamFile
{
    version     2.0;
    format      ascii;
    arch        "LSB;label=32;scalar=64";
    class       surfaceScalarField;
    location    "0.1";
    object      phi;
}
// * * * * * * * * * * * * * * * * * * * * * * * * * * * * * * * * * * * * * //

dimensions      [0 3 -1 0 0 0 0];

oriented        oriented;

internalField   nonuniform List<scalar> 
94400
(
7.3514e-06
2.6486e-06
5.10551e-06
2.24589e-06
3.71255e-06
1.39297e-06
2.84758e-06
8.64967e-07
2.29182e-06
5.55755e-07
1.91982e-06
3.72e-07
1.65899e-06
2.60838e-07
1.46777e-06
1.91216e-07
1.32228e-06
1.45495e-07
1.2083e-06
1.1398e-07
1.11699e-06
9.13094e-08
1.04257e-06
7.44121e-08
9.81126e-07
6.14488e-08
9.29859e-07
5.12672e-08
8.86744e-07
4.31144e-08
8.50264e-07
3.64799e-08
8.19258e-07
3.10063e-08
7.92822e-07
2.64364e-08
7.70241e-07
2.25811e-08
7.50943e-07
1.92982e-08
7.34463e-07
1.64793e-08
7.20423e-07
1.40399e-08
7.0851e-07
1.19135e-08
6.98463e-07
1.00468e-08
6.90066e-07
8.3966e-09
6.83139e-07
6.92725e-09
6.7753e-07
5.60898e-09
6.73114e-07
4.41649e-09
6.69786e-07
3.32785e-09
6.67462e-07
2.32367e-09
6.66076e-07
1.38632e-09
6.65577e-07
4.99268e-10
6.6593e-07
-3.53597e-10
6.67119e-07
-1.18874e-09
6.69143e-07
-2.02393e-09
6.72022e-07
-2.87945e-09
6.75802e-07
-3.77994e-09
6.80559e-07
-4.75724e-09
6.86415e-07
-5.85514e-09
6.93552e-07
-7.13786e-09
7.02259e-07
-8.70648e-09
7.12992e-07
-1.07331e-08
7.26529e-07
-1.35374e-08
7.44297e-07
-1.77674e-08
7.69138e-07
-2.48415e-08
8.07155e-07
-3.80166e-08
8.72161e-07
-6.50062e-08
9.97348e-07
-1.25186e-07
1.2688e-06
-2.7145e-07
-6.40526e-07
1.90932e-06
1.01831e-05
2.46545e-06
9.21642e-06
3.21262e-06
7.94627e-06
2.66312e-06
6.79705e-06
2.01418e-06
5.86112e-06
1.49168e-06
5.12476e-06
1.10836e-06
4.54846e-06
8.3714e-07
4.09398e-06
6.45686e-07
3.73113e-06
5.08348e-07
3.43754e-06
4.07575e-07
3.19699e-06
3.31861e-07
2.99771e-06
2.73684e-07
2.83109e-06
2.28069e-07
2.6907e-06
1.91658e-07
2.57168e-06
1.62139e-07
2.47028e-06
1.37878e-07
2.38359e-06
1.17699e-07
2.30929e-06
1.00737e-07
2.24552e-06
8.63434e-08
2.1908e-06
7.40256e-08
2.14387e-06
6.34018e-08
2.10374e-06
5.41722e-08
2.06956e-06
4.60984e-08
2.04062e-06
3.8988e-08
2.01633e-06
3.26835e-08
1.9962e-06
2.70543e-08
1.97982e-06
2.19904e-08
1.96684e-06
1.73975e-08
1.95697e-06
1.31932e-08
1.94999e-06
9.3041e-09
1.94572e-06
5.66245e-09
1.94401e-06
2.20394e-09
1.9448e-06
-1.1353e-09
1.94803e-06
-4.42176e-09
1.95373e-06
-7.72874e-09
1.962e-06
-1.11418e-08
1.97298e-06
-1.47671e-08
1.98697e-06
-1.87439e-08
2.00438e-06
-2.32656e-08
2.02586e-06
-2.86148e-08
2.05238e-06
-3.52258e-08
2.08544e-06
-4.38008e-08
2.12744e-06
-5.55309e-08
2.1822e-06
-7.2533e-08
2.25609e-06
-9.87238e-08
2.3596e-06
-1.41531e-07
2.50969e-06
-2.15096e-07
2.73091e-06
-3.46404e-07
3.04517e-06
-5.85714e-07
-1.00147e-06
3.40612e-06
1.05345e-05
1.93093e-06
1.04951e-05
3.25202e-06
9.90362e-06
3.25462e-06
9.09172e-06
2.82608e-06
8.26041e-06
2.323e-06
7.49878e-06
1.86999e-06
6.83576e-06
1.50016e-06
6.27177e-06
1.20968e-06
5.79616e-06
9.83956e-07
5.3956e-06
8.08136e-07
5.05746e-06
6.70001e-07
4.77092e-06
5.60227e-07
4.52707e-06
4.71916e-07
4.31872e-06
4.00007e-07
4.14008e-06
3.40782e-07
3.98647e-06
2.91486e-07
3.85411e-06
2.50056e-07
3.73992e-06
2.14929e-07
3.64136e-06
1.84904e-07
3.55634e-06
1.59048e-07
3.48311e-06
1.36628e-07
3.42022e-06
1.17059e-07
3.36645e-06
9.98699e-08
3.32076e-06
8.46761e-08
3.28229e-06
7.116e-08
3.25029e-06
5.90552e-08
3.22414e-06
4.81357e-08
3.20333e-06
3.8206e-08
3.18743e-06
2.9094e-08
3.17609e-06
2.06443e-08
3.16904e-06
1.27129e-08
3.16608e-06
5.16149e-09
3.1671e-06
-2.1486e-09
3.17204e-06
-9.36312e-09
3.18095e-06
-1.66438e-08
3.19399e-06
-2.41802e-08
3.21143e-06
-3.22073e-08
3.23372e-06
-4.10318e-08
3.26153e-06
-5.1073e-08
3.29584e-06
-6.29296e-08
3.3381e-06
-7.74889e-08
3.39042e-06
-9.61127e-08
3.45584e-06
-1.20953e-07
3.5388e-06
-1.55492e-07
3.64553e-06
-2.05456e-07
3.78426e-06
-2.80259e-07
3.96417e-06
-3.95011e-07
4.19053e-06
-5.72764e-07
4.44944e-06
-8.44621e-07
-1.23342e-06
4.68139e-06
1.04653e-05
1.46561e-06
1.07771e-05
2.94024e-06
1.06758e-05
3.35589e-06
1.02726e-05
3.22935e-06
9.71468e-06
2.88088e-06
9.10808e-06
2.47659e-06
8.51525e-06
2.09299e-06
7.96704e-06
1.75789e-06
7.47504e-06
1.47595e-06
7.04061e-06
1.24257e-06
6.66027e-06
1.05034e-06
6.32867e-06
8.91827e-07
6.04006e-06
7.60526e-07
5.78898e-06
6.51091e-07
5.57051e-06
5.59247e-07
5.38038e-06
4.81617e-07
5.2149e-06
4.15541e-07
5.07091e-06
3.5892e-07
4.94572e-06
3.10088e-07
4.83706e-06
2.67715e-07
4.74295e-06
2.30731e-07
4.66174e-06
1.98266e-07
4.59201e-06
1.69607e-07
4.53252e-06
1.44164e-07
4.48224e-06
1.21441e-07
4.44028e-06
1.01019e-07
4.40587e-06
8.2539e-08
4.37839e-06
6.56852e-08
4.35731e-06
5.0178e-08
4.34219e-06
3.57627e-08
4.3327e-06
2.22007e-08
4.3286e-06
9.26121e-09
4.32974e-06
-3.28861e-09
4.33607e-06
-1.56945e-08
4.34766e-06
-2.82293e-08
4.36469e-06
-4.12115e-08
4.38752e-06
-5.50322e-08
4.41668e-06
-7.01935e-08
4.45297e-06
-8.7367e-08
4.49752e-06
-1.07482e-07
4.5519e-06
-1.3186e-07
4.61821e-06
-1.62429e-07
4.6993e-06
-2.02041e-07
4.79877e-06
-2.54956e-07
4.92082e-06
-3.27515e-07
5.06953e-06
-4.28964e-07
5.24661e-06
-5.72094e-07
5.44674e-06
-7.72889e-07
5.64906e-06
-1.04695e-06
-1.39631e-06
5.81196e-06
1.0342e-05
1.12358e-06
1.07373e-05
2.545e-06
1.09003e-05
3.1928e-06
1.08068e-05
3.32286e-06
1.05226e-05
3.16509e-06
1.01252e-05
2.87406e-06
9.67687e-06
2.54127e-06
9.22e-06
2.21475e-06
8.77976e-06
1.9162e-06
8.36942e-06
1.65291e-06
7.99474e-06
1.42502e-06
7.65702e-06
1.22955e-06
7.35514e-06
1.0624e-06
7.08678e-06
9.19448e-07
6.84912e-06
7.96906e-07
6.63924e-06
6.915e-07
6.45432e-06
6.00461e-07
6.29176e-06
5.21484e-07
6.14919e-06
4.52658e-07
6.0245e-06
3.92402e-07
5.91583e-06
3.39404e-07
5.82152e-06
2.92572e-07
5.74014e-06
2.50989e-07
5.67042e-06
2.13883e-07
5.61127e-06
1.80594e-07
5.56173e-06
1.50557e-07
5.52099e-06
1.23277e-07
5.48836e-06
9.83173e-08
5.46325e-06
7.52857e-08
5.44519e-06
5.38205e-08
5.43381e-06
3.35808e-08
5.42884e-06
1.42337e-08
5.43011e-06
-4.55774e-09
5.43757e-06
-2.31495e-08
5.45127e-06
-4.19352e-08
5.47143e-06
-6.13709e-08
5.49841e-06
-8.2008e-08
5.53275e-06
-1.04541e-07
5.57526e-06
-1.29872e-07
5.62699e-06
-1.59211e-07
5.68933e-06
-1.94206e-07
5.76405e-06
-2.37144e-07
5.85322e-06
-2.91208e-07
5.95907e-06
-3.60814e-07
6.08354e-06
-4.51984e-07
6.22718e-06
-5.72598e-07
6.38725e-06
-7.32168e-07
6.5548e-06
-9.40437e-07
6.71143e-06
-1.20358e-06
-1.51603e-06
6.83115e-06
1.02416e-05
8.8194e-07
1.06171e-05
2.16957e-06
1.08951e-05
2.91474e-06
1.09957e-05
3.2223e-06
1.09249e-05
3.23589e-06
1.07229e-05
3.07602e-06
1.04358e-05
2.82842e-06
1.01026e-05
2.54795e-06
9.75225e-06
2.26655e-06
9.40416e-06
2.001e-06
9.07037e-06
1.75881e-06
8.7577e-06
1.54222e-06
8.46944e-06
1.35065e-06
8.20669e-06
1.18221e-06
7.96913e-06
1.03446e-06
7.75573e-06
9.04905e-07
7.565e-06
7.91192e-07
7.39529e-06
6.91187e-07
7.24494e-06
6.03014e-07
7.11229e-06
5.25044e-07
6.99583e-06
4.5587e-07
6.89412e-06
3.94283e-07
6.80587e-06
3.39239e-07
6.72991e-06
2.89837e-07
6.66522e-06
2.45291e-07
6.61086e-06
2.04914e-07
6.56604e-06
1.68096e-07
6.53007e-06
1.3429e-07
6.50236e-06
1.02996e-07
6.48243e-06
7.37525e-08
6.46989e-06
4.61155e-08
6.46447e-06
1.9651e-08
6.466e-06
-6.08197e-09
6.4744e-06
-3.15494e-08
6.48973e-06
-5.72633e-08
6.51217e-06
-8.38101e-08
6.54204e-06
-1.11887e-07
6.57985e-06
-1.42351e-07
6.62627e-06
-1.76289e-07
6.68216e-06
-2.151e-07
6.74858e-06
-2.60622e-07
6.82671e-06
-3.15278e-07
6.91776e-06
-3.82255e-07
7.02263e-06
-4.65686e-07
7.14141e-06
-5.70763e-07
7.27244e-06
-7.03631e-07
7.41105e-06
-8.70777e-07
7.54812e-06
-1.07751e-06
7.66958e-06
-1.32504e-06
-1.60602e-06
7.75957e-06
1.01728e-05
7.09188e-07
1.0498e-05
1.8443e-06
1.08084e-05
2.60435e-06
1.10139e-05
3.0168e-06
1.10883e-05
3.16154e-06
1.10419e-05
3.12239e-06
1.09009e-05
2.96939e-06
1.06944e-05
2.75451e-06
1.04479e-05
2.51302e-06
1.01817e-05
2.26716e-06
9.91061e-06
2.02992e-06
9.64465e-06
1.80818e-06
9.39037e-06
1.60493e-06
9.15168e-06
1.4209e-06
8.93064e-06
1.25549e-06
8.72809e-06
1.10746e-06
8.54403e-06
9.7525e-07
8.37797e-06
8.57247e-07
8.22911e-06
7.51879e-07
8.09647e-06
6.5768e-07
7.97903e-06
5.73314e-07
7.87573e-06
4.97578e-07
7.78557e-06
4.29399e-07
7.70759e-06
3.67817e-07
7.64091e-06
3.11976e-07
7.58471e-06
2.61109e-07
7.53829e-06
2.14521e-07
7.501e-06
1.71578e-07
7.4723e-06
1.31692e-07
7.45174e-06
9.43115e-08
7.43896e-06
5.89022e-08
7.43367e-06
2.49378e-08
7.43571e-06
-8.11869e-09
7.44499e-06
-4.08328e-08
7.46155e-06
-7.38221e-08
7.48552e-06
-1.07785e-07
7.51717e-06
-1.43536e-07
7.55687e-06
-1.82055e-07
7.60513e-06
-2.24544e-07
7.66254e-06
-2.72507e-07
7.72975e-06
-3.27833e-07
7.80738e-06
-3.92904e-07
7.89581e-06
-4.70686e-07
7.99491e-06
-5.64789e-07
8.10356e-06
-6.79412e-07
8.21899e-06
-8.19067e-07
8.3361e-06
-9.87887e-07
8.44696e-06
-1.18836e-06
8.54132e-06
-1.4194e-06
-1.67404e-06
8.60933e-06
1.01274e-05
5.81796e-07
1.04004e-05
1.5713e-06
1.07033e-05
2.30147e-06
1.09558e-05
2.76425e-06
1.11191e-05
2.99827e-06
1.11847e-05
3.0568e-06
1.1162e-05
2.99201e-06
1.10687e-05
2.84782e-06
1.09239e-05
2.65785e-06
1.07451e-05
2.44601e-06
1.05467e-05
2.22833e-06
1.03399e-05
2.01496e-06
1.01329e-05
1.81188e-06
9.93158e-06
1.62225e-06
9.73968e-06
1.4474e-06
9.55964e-06
1.2875e-06
9.39283e-06
1.14206e-06
9.23987e-06
1.01021e-06
9.10087e-06
8.90873e-07
8.97561e-06
7.82938e-07
8.86364e-06
6.85286e-07
8.76438e-06
5.96843e-07
8.67717e-06
5.16602e-07
8.60136e-06
4.43628e-07
8.53628e-06
3.77055e-07
8.48131e-06
3.16085e-07
8.43585e-06
2.59978e-07
8.39938e-06
2.08045e-07
8.37144e-06
1.59635e-07
8.35163e-06
1.14127e-07
8.33961e-06
7.09137e-08
8.33516e-06
2.9393e-08
8.33809e-06
-1.1052e-08
8.34833e-06
-5.10696e-08
8.36587e-06
-9.13625e-08
8.3908e-06
-1.32715e-07
8.42329e-06
-1.76025e-07
8.46358e-06
-2.22348e-07
8.51198e-06
-2.72944e-07
8.5688e-06
-3.29331e-07
8.63432e-06
-3.9335e-07
8.70864e-06
-4.6722e-07
8.79151e-06
-5.53564e-07
8.88211e-06
-6.55389e-07
8.97865e-06
-7.75945e-07
9.07798e-06
-9.18398e-07
9.17531e-06
-1.08522e-06
9.26418e-06
-1.27723e-06
9.33722e-06
-1.49244e-06
-1.72491e-06
9.3881e-06
1.00972e-05
4.84601e-07
1.03247e-05
1.34378e-06
1.06037e-05
2.02244e-06
1.08694e-05
2.4986e-06
1.10813e-05
2.78641e-06
1.12212e-05
2.91683e-06
1.12873e-05
2.92595e-06
1.1287e-05
2.8481e-06
1.12325e-05
2.7124e-06
1.11368e-05
2.54169e-06
1.10123e-05
2.35285e-06
1.08694e-05
2.15779e-06
1.07168e-05
1.96451e-06
1.0561e-05
1.77809e-06
1.04068e-05
1.60156e-06
1.02579e-05
1.43646e-06
1.01165e-05
1.28342e-06
9.98433e-06
1.14238e-06
9.86227e-06
1.01293e-06
9.75079e-06
8.94413e-07
9.65004e-06
7.86035e-07
9.55993e-06
6.86957e-07
9.4802e-06
5.96327e-07
9.41053e-06
5.13303e-07
9.35051e-06
4.37073e-07
9.29974e-06
3.6686e-07
9.25779e-06
3.01921e-07
9.22429e-06
2.41546e-07
9.19888e-06
1.8505e-07
9.18124e-06
1.31769e-07
9.1711e-06
8.10468e-08
9.16827e-06
3.22244e-08
9.17259e-06
-1.5374e-08
9.18398e-06
-6.24578e-08
9.20241e-06
-1.0979e-07
9.22791e-06
-1.58213e-07
9.26055e-06
-2.08672e-07
9.30046e-06
-2.62254e-07
9.34774e-06
-3.2022e-07
9.40245e-06
-3.84045e-07
9.46455e-06
-4.5545e-07
9.53375e-06
-5.3642e-07
9.60939e-06
-6.29198e-07
9.6902e-06
-7.36204e-07
9.77413e-06
-8.59875e-07
9.85808e-06
-1.00235e-06
9.93786e-06
-1.16499e-06
1.00083e-05
-1.34771e-06
1.00642e-05
-1.5483e-06
-1.76187e-06
1.01012e-05
1.00765e-05
4.08128e-07
1.02668e-05
1.15346e-06
1.05173e-05
1.77198e-06
1.07777e-05
2.23813e-06
1.10115e-05
2.55261e-06
1.11971e-05
2.7313e-06
1.13255e-05
2.79754e-06
1.1397e-05
2.77654e-06
1.14175e-05
2.6919e-06
1.13955e-05
2.56373e-06
1.13401e-05
2.40819e-06
1.12603e-05
2.2376e-06
1.11639e-05
2.06099e-06
1.10572e-05
1.88473e-06
1.09457e-05
1.71311e-06
1.08333e-05
1.54886e-06
1.07231e-05
1.39358e-06
1.06174e-05
1.24806e-06
1.05178e-05
1.11255e-06
1.04253e-05
9.86912e-07
1.03406e-05
8.70749e-07
1.0264e-05
7.63521e-07
1.01958e-05
6.64593e-07
1.01358e-05
5.7328e-07
1.0084e-05
4.88874e-07
1.00402e-05
4.10665e-07
1.00041e-05
3.37947e-07
9.97567e-06
2.70024e-07
9.95451e-06
2.0621e-07
9.94045e-06
1.45822e-07
9.93332e-06
8.81794e-08
9.93295e-06
3.25912e-08
9.93923e-06
-2.16546e-08
9.95208e-06
-7.53048e-08
9.97145e-06
-1.29158e-07
9.99732e-06
-1.84082e-07
1.00297e-05
-2.41042e-07
1.00686e-05
-3.01116e-07
1.01139e-05
-3.65526e-07
1.01655e-05
-4.35658e-07
1.02231e-05
-5.13072e-07
1.02862e-05
-5.99502e-07
1.03538e-05
-6.96809e-07
1.04245e-05
-8.06901e-07
1.04962e-05
-9.3156e-07
1.0566e-05
-1.07218e-06
1.06304e-05
-1.22941e-06
1.06854e-05
-1.40272e-06
1.07271e-05
-1.58996e-06
-1.78721e-06
1.07524e-05
1.00618e-05
3.46376e-07
1.02223e-05
9.92941e-07
1.04446e-05
1.54961e-06
1.0691e-05
1.9918e-06
1.09301e-05
2.31344e-06
1.11406e-05
2.52084e-06
1.13102e-05
2.62797e-06
1.14344e-05
2.65235e-06
1.15141e-05
2.6121e-06
1.15539e-05
2.52397e-06
1.15598e-05
2.40235e-06
1.15383e-05
2.25904e-06
1.1496e-05
2.10327e-06
1.14387e-05
1.94202e-06
1.13715e-05
1.78039e-06
1.12983e-05
1.62197e-06
1.12227e-05
1.46917e-06
1.11473e-05
1.32352e-06
1.1074e-05
1.18586e-06
1.10043e-05
1.05658e-06
1.09394e-05
9.35694e-07
1.08799e-05
8.23e-07
1.08264e-05
7.18115e-07
1.07791e-05
6.20546e-07
1.07383e-05
5.29731e-07
1.07039e-05
4.45063e-07
1.06759e-05
3.65907e-07
1.06543e-05
2.91612e-07
1.0639e-05
2.21517e-07
1.06299e-05
1.5495e-07
1.06268e-05
9.12289e-08
1.06298e-05
2.96537e-08
1.06386e-05
-3.05004e-08
1.06533e-05
-8.99939e-08
1.06738e-05
-1.49635e-07
1.07e-05
-2.10295e-07
1.07319e-05
-2.72924e-07
1.07693e-05
-3.38566e-07
1.08122e-05
-4.08375e-07
1.08601e-05
-4.83619e-07
1.09127e-05
-5.65685e-07
1.09693e-05
-6.56052e-07
1.10287e-05
-7.56242e-07
1.10896e-05
-8.6773e-07
1.11498e-05
-9.91795e-07
1.12069e-05
-1.12931e-06
1.1258e-05
-1.28049e-06
1.12999e-05
-1.4446e-06
1.13296e-05
-1.6197e-06
-1.80263e-06
1.1345e-05
1.00509e-05
2.95428e-07
1.01877e-05
8.56206e-07
1.03845e-05
1.35278e-06
1.06131e-05
1.76325e-06
1.08479e-05
2.07862e-06
1.10692e-05
2.29949e-06
1.12639e-05
2.43327e-06
1.14248e-05
2.49151e-06
1.15494e-05
2.48748e-06
1.16389e-05
2.43448e-06
1.16965e-05
2.34475e-06
1.17266e-05
2.2289e-06
1.17341e-05
2.09575e-06
1.17238e-05
1.95237e-06
1.17e-05
1.80421e-06
1.16665e-05
1.6554e-06
1.16268e-05
1.50891e-06
1.15835e-05
1.36683e-06
1.15388e-05
1.23054e-06
1.14945e-05
1.10088e-06
1.14519e-05
9.78263e-07
1.14121e-05
8.62801e-07
1.13759e-05
7.54381e-07
1.13437e-05
6.52726e-07
1.1316e-05
5.57438e-07
1.1293e-05
4.68038e-07
1.12749e-05
3.83987e-07
1.12618e-05
3.04704e-07
1.12538e-05
2.29576e-07
1.12508e-05
1.57965e-07
1.12528e-05
8.921e-08
1.12598e-05
2.26237e-08
1.12718e-05
-4.25101e-08
1.12888e-05
-1.06944e-07
1.13106e-05
-1.71473e-07
1.13373e-05
-2.36949e-07
1.13686e-05
-3.04286e-07
1.14045e-05
-3.74471e-07
1.14447e-05
-4.4857e-07
1.14888e-05
-5.27724e-07
1.15363e-05
-6.13143e-07
1.15863e-05
-7.06071e-07
1.16378e-05
-8.07737e-07
1.16893e-05
-9.19266e-07
1.17391e-05
-1.04156e-06
1.17849e-05
-1.17515e-06
1.18244e-05
-1.31997e-06
1.1855e-05
-1.47522e-06
1.18746e-05
-1.63924e-06
-1.80945e-06
1.18814e-05
1.00428e-05
2.52634e-07
1.01605e-05
7.38538e-07
1.03349e-05
1.17834e-06
1.05449e-05
1.55325e-06
1.07701e-05
1.85345e-06
1.09932e-05
2.07634e-06
1.12015e-05
2.22503e-06
1.13864e-05
2.30659e-06
1.15435e-05
2.33035e-06
1.16715e-05
2.30646e-06
1.17714e-05
2.2449e-06
1.18455e-05
2.15482e-06
1.1897e-05
2.04422e-06
1.19295e-05
1.91985e-06
1.19466e-05
1.78716e-06
1.19515e-05
1.6505e-06
1.19472e-05
1.51317e-06
1.19364e-05
1.37765e-06
1.19212e-05
1.24571e-06
1.19036e-05
1.11855e-06
1.18849e-05
9.96935e-07
1.18664e-05
8.81269e-07
1.18491e-05
7.7169e-07
1.18337e-05
6.6813e-07
1.18208e-05
5.70366e-07
1.18108e-05
4.78056e-07
1.1804e-05
3.90772e-07
1.18007e-05
3.08019e-07
1.1801e-05
2.29251e-07
1.18051e-05
1.53881e-07
1.1813e-05
8.12871e-08
1.18248e-05
1.08141e-08
1.18405e-05
-5.82272e-08
1.18602e-05
-1.26562e-07
1.18836e-05
-1.94956e-07
1.19109e-05
-2.64221e-07
1.19418e-05
-3.35218e-07
1.19762e-05
-4.08863e-07
1.20138e-05
-4.86123e-07
1.20541e-05
-5.6801e-07
1.20965e-05
-6.55565e-07
1.21402e-05
-7.49824e-07
1.21843e-05
-8.51768e-07
1.22273e-05
-9.6225e-07
1.22676e-05
-1.0819e-06
1.23034e-05
-1.21099e-06
1.23328e-05
-1.34932e-06
1.23537e-05
-1.49613e-06
1.23644e-05
-1.64995e-06
-1.80872e-06
1.23637e-05
1.00365e-05
2.16131e-07
1.01388e-05
6.36249e-07
1.0294e-05
1.02315e-06
1.04862e-05
1.36105e-06
1.06992e-05
1.64041e-06
1.09185e-05
1.85703e-06
1.11322e-05
2.01129e-06
1.13317e-05
2.10711e-06
1.15114e-05
2.15072e-06
1.16682e-05
2.14961e-06
1.18015e-05
2.11164e-06
1.19118e-05
2.04444e-06
1.20011e-05
1.95499e-06
1.20715e-05
1.84943e-06
1.21257e-05
1.73297e-06
1.21663e-05
1.60989e-06
1.21958e-05
1.48363e-06
1.22166e-05
1.35687e-06
1.22307e-05
1.23164e-06
1.22398e-05
1.1094e-06
1.22456e-05
9.91189e-07
1.22492e-05
8.77643e-07
1.22517e-05
7.69126e-07
1.22541e-05
6.65759e-07
1.2257e-05
5.67483e-07
1.2261e-05
4.74096e-07
1.22664e-05
3.85283e-07
1.22738e-05
3.00644e-07
1.22834e-05
2.1971e-07
1.22953e-05
1.41958e-07
1.23098e-05
6.68188e-08
1.23269e-05
-6.31714e-09
1.23468e-05
-7.80965e-08
1.23694e-05
-1.49203e-07
1.23948e-05
-2.20356e-07
1.24229e-05
-2.92315e-07
1.24536e-05
-3.65878e-07
1.24866e-05
-4.41877e-07
1.25216e-05
-5.21178e-07
1.25583e-05
-6.04668e-07
1.25959e-05
-6.93232e-07
1.26338e-05
-7.87726e-07
1.2671e-05
-8.88926e-07
1.27062e-05
-9.97474e-07
1.27381e-05
-1.11379e-06
1.27651e-05
-1.238e-06
1.27857e-05
-1.36984e-06
1.27981e-05
-1.50856e-06
1.28011e-05
-1.65294e-06
-1.80127e-06
1.27936e-05
1.00316e-05
1.84568e-07
1.01214e-05
5.46446e-07
1.02601e-05
8.8438e-07
1.04359e-05
1.18525e-06
1.0636e-05
1.44033e-06
1.08483e-05
1.64479e-06
1.10622e-05
1.79742e-06
1.12693e-05
1.89996e-06
1.14636e-05
1.95637e-06
1.16413e-05
1.97196e-06
1.18002e-05
1.95276e-06
1.19397e-05
1.90492e-06
1.20603e-05
1.83435e-06
1.21633e-05
1.74644e-06
1.22503e-05
1.64597e-06
1.23232e-05
1.53698e-06
1.2384e-05
1.42287e-06
1.24345e-05
1.30635e-06
1.24766e-05
1.18958e-06
1.25118e-05
1.07419e-06
1.25416e-05
9.61369e-07
1.25673e-05
8.51965e-07
1.25899e-05
7.46504e-07
1.26104e-05
6.4527e-07
1.26295e-05
5.48345e-07
1.2648e-05
4.55655e-07
1.26663e-05
3.66994e-07
1.26849e-05
2.82056e-07
1.27041e-05
2.00454e-07
1.27243e-05
1.21735e-07
1.27458e-05
4.53913e-08
1.27686e-05
-2.91313e-08
1.27929e-05
-1.02426e-07
1.28188e-05
-1.75124e-07
1.28464e-05
-2.4789e-07
1.28755e-05
-3.21418e-07
1.2906e-05
-3.96436e-07
1.29378e-05
-4.7369e-07
1.29706e-05
-5.53945e-07
1.30039e-05
-6.37968e-07
1.30372e-05
-7.26504e-07
1.30697e-05
-8.20255e-07
1.31006e-05
-9.19833e-07
1.31288e-05
-1.02571e-06
1.31532e-05
-1.13817e-06
1.31724e-05
-1.25723e-06
1.31852e-05
-1.38258e-06
1.31902e-05
-1.51355e-06
1.31863e-05
-1.6491e-06
-1.78782e-06
1.31729e-05
1.00276e-05
1.56934e-07
1.01072e-05
4.66832e-07
1.02321e-05
7.59495e-07
1.03933e-05
1.02411e-06
1.05806e-05
1.25297e-06
1.07842e-05
1.44123e-06
1.09948e-05
1.58679e-06
1.12048e-05
1.69e-06
1.1408e-05
1.75317e-06
1.16e-05
1.77995e-06
1.1778e-05
1.7748e-06
1.19403e-05
1.74258e-06
1.20865e-05
1.68815e-06
1.22168e-05
1.61612e-06
1.23321e-05
1.5307e-06
1.24335e-05
1.43561e-06
1.25223e-05
1.33403e-06
1.26001e-05
1.2286e-06
1.26682e-05
1.12147e-06
1.2728e-05
1.01436e-06
1.27808e-05
9.08535e-07
1.28278e-05
8.04963e-07
1.287e-05
7.04291e-07
1.29084e-05
6.06923e-07
1.29437e-05
5.13059e-07
1.29766e-05
4.22727e-07
1.30078e-05
3.35823e-07
1.30377e-05
2.52126e-07
1.30668e-05
1.71328e-07
1.30955e-05
9.30472e-08
1.31241e-05
1.68412e-08
1.31527e-05
-5.77826e-08
1.31816e-05
-1.31358e-07
1.3211e-05
-2.04457e-07
1.32408e-05
-2.7768e-07
1.3271e-05
-3.51656e-07
1.33016e-05
-4.27033e-07
1.33324e-05
-5.04473e-07
1.33631e-05
-5.84642e-07
1.33933e-05
-6.68195e-07
1.34226e-05
-7.55756e-07
1.34502e-05
-8.47894e-07
1.34755e-05
-9.45086e-07
1.34974e-05
-1.04768e-06
1.35151e-05
-1.15585e-06
1.35274e-05
-1.26954e-06
1.35333e-05
-1.38844e-06
1.35317e-05
-1.51195e-06
1.35218e-05
-1.63918e-06
-1.76895e-06
1.35029e-05
1.00245e-05
1.3245e-07
1.00958e-05
3.95556e-07
1.02089e-05
6.46308e-07
1.03572e-05
8.75858e-07
1.05326e-05
1.07757e-06
1.07269e-05
1.24689e-06
1.09324e-05
1.38135e-06
1.11419e-05
1.48047e-06
1.13497e-05
1.54539e-06
1.15511e-05
1.57852e-06
1.17428e-05
1.58308e-06
1.19226e-05
1.56282e-06
1.20891e-05
1.52163e-06
1.22419e-05
1.46336e-06
1.23809e-05
1.39163e-06
1.25068e-05
1.30972e-06
1.26203e-05
1.22053e-06
1.27224e-05
1.12652e-06
1.28141e-05
1.02976e-06
1.28966e-05
9.3192e-07
1.29708e-05
8.34311e-07
1.30378e-05
7.37933e-07
1.30986e-05
6.43505e-07
1.3154e-05
5.5151e-07
1.32048e-05
4.62228e-07
1.32518e-05
3.75771e-07
1.32955e-05
2.92111e-07
1.33365e-05
2.11105e-07
1.33753e-05
1.32516e-07
1.34124e-05
5.60288e-08
1.34479e-05
-1.87341e-08
1.34824e-05
-9.22024e-08
1.35158e-05
-1.64848e-07
1.35486e-05
-2.3718e-07
1.35806e-05
-3.09731e-07
1.3612e-05
-3.83061e-07
1.36427e-05
-4.5774e-07
1.36726e-05
-5.34345e-07
1.37014e-05
-6.1345e-07
1.37288e-05
-6.95607e-07
1.37544e-05
-7.81333e-07
1.37776e-05
-8.71083e-07
1.37977e-05
-9.65225e-07
1.38141e-05
-1.06401e-06
1.38257e-05
-1.16753e-06
1.38319e-05
-1.27569e-06
1.38316e-05
-1.38818e-06
1.38241e-05
-1.50447e-06
1.38087e-05
-1.62378e-06
-1.74514e-06
1.37849e-05
1.00219e-05
1.10502e-07
1.00864e-05
3.31104e-07
1.01898e-05
5.42912e-07
1.03269e-05
7.38746e-07
1.04915e-05
9.13011e-07
1.06767e-05
1.06162e-06
1.0876e-05
1.18206e-06
1.10831e-05
1.27339e-06
1.12925e-05
1.336e-06
1.14996e-05
1.37138e-06
1.17009e-05
1.38182e-06
1.18936e-05
1.37011e-06
1.20759e-05
1.33933e-06
1.22467e-05
1.2926e-06
1.24054e-05
1.23294e-06
1.25519e-05
1.16319e-06
1.26866e-05
1.08588e-06
1.28098e-05
1.00325e-06
1.29224e-05
9.17181e-07
1.30251e-05
8.29256e-07
1.31187e-05
7.40738e-07
1.3204e-05
6.52613e-07
1.32819e-05
5.65618e-07
1.33531e-05
4.80269e-07
1.34184e-05
3.96893e-07
1.34785e-05
3.15656e-07
1.35341e-05
2.36587e-07
1.35856e-05
1.59604e-07
1.36336e-05
8.45291e-08
1.36785e-05
1.11081e-08
1.37207e-05
-6.09766e-08
1.37606e-05
-1.32094e-07
1.37984e-05
-2.02655e-07
1.38343e-05
-2.73102e-07
1.38685e-05
-3.43905e-07
1.3901e-05
-4.1555e-07
1.39318e-05
-4.88533e-07
1.39608e-05
-5.63349e-07
1.39878e-05
-6.40484e-07
1.40126e-05
-7.20399e-07
1.40348e-05
-8.03514e-07
1.40539e-05
-8.90191e-07
1.40694e-05
-9.80706e-07
1.40806e-05
-1.07523e-06
1.40869e-05
-1.1738e-06
1.40875e-05
-1.27629e-06
1.40817e-05
-1.38241e-06
1.40689e-05
-1.49167e-06
1.40486e-05
-1.60341e-06
-1.71679e-06
1.40202e-05
1.00199e-05
9.05967e-08
1.00788e-05
2.72218e-07
1.01741e-05
4.47645e-07
1.03017e-05
6.11118e-07
1.04567e-05
7.58017e-07
1.06335e-05
8.84808e-07
1.08264e-05
9.89143e-07
1.10299e-05
1.06988e-06
1.1239e-05
1.12695e-06
1.14491e-05
1.16121e-06
1.16567e-05
1.17423e-06
1.18588e-05
1.16806e-06
1.20531e-05
1.14505e-06
1.2238e-05
1.10768e-06
1.24125e-05
1.05844e-06
1.2576e-05
9.99659e-07
1.27284e-05
9.3352e-07
1.28697e-05
8.61952e-07
1.30002e-05
7.86633e-07
1.31205e-05
7.08979e-07
1.32311e-05
6.30154e-07
1.33326e-05
5.51079e-07
1.34258e-05
4.72461e-07
1.35112e-05
3.94809e-07
1.35897e-05
3.18462e-07
1.36617e-05
2.43612e-07
1.3728e-05
1.70324e-07
1.3789e-05
9.8557e-08
1.38454e-05
2.81799e-08
1.38975e-05
-4.10107e-08
1.39458e-05
-1.09279e-07
1.39906e-05
-1.76937e-07
1.40323e-05
-2.44338e-07
1.40711e-05
-3.11863e-07
1.41071e-05
-3.79915e-07
1.41404e-05
-4.48912e-07
1.41712e-05
-5.19277e-07
1.41993e-05
-5.91428e-07
1.42245e-05
-6.65771e-07
1.42468e-05
-7.42682e-07
1.42658e-05
-8.22499e-07
1.42811e-05
-9.05499e-07
1.42923e-05
-9.91887e-07
1.42988e-05
-1.08177e-06
1.43002e-05
-1.17514e-06
1.42957e-05
-1.27185e-06
1.4285e-05
-1.37163e-06
1.42673e-05
-1.47403e-06
1.42424e-05
-1.57847e-06
-1.68425e-06
1.42098e-05
1.00183e-05
7.23234e-08
1.00727e-05
2.17828e-07
1.01613e-05
3.5904e-07
1.0281e-05
4.9142e-07
1.04277e-05
6.11248e-07
1.0597e-05
7.15579e-07
1.07838e-05
8.02347e-07
1.09832e-05
8.70394e-07
1.11908e-05
9.19415e-07
1.14021e-05
9.49842e-07
1.16137e-05
9.62706e-07
1.18223e-05
9.59478e-07
1.20254e-05
9.41918e-07
1.22211e-05
9.11943e-07
1.24081e-05
8.71504e-07
1.25852e-05
8.22501e-07
1.2752e-05
7.66716e-07
1.29082e-05
7.05762e-07
1.30538e-05
6.4106e-07
1.31889e-05
5.7383e-07
1.3314e-05
5.05085e-07
1.34294e-05
4.3564e-07
1.35358e-05
3.66132e-07
1.36335e-05
2.97026e-07
1.37234e-05
2.28643e-07
1.38058e-05
1.61172e-07
1.38814e-05
9.46906e-08
1.39508e-05
2.91824e-08
1.40144e-05
-3.54506e-08
1.40728e-05
-9.93724e-08
1.41263e-05
-1.62802e-07
1.41754e-05
-2.26002e-07
1.42203e-05
-2.8927e-07
1.42614e-05
-3.52929e-07
1.42988e-05
-4.17322e-07
1.43327e-05
-4.828e-07
1.43631e-05
-5.49717e-07
1.43901e-05
-6.18419e-07
1.44136e-05
-6.89237e-07
1.44334e-05
-7.62473e-07
1.44493e-05
-8.3839e-07
1.4461e-05
-9.17197e-07
1.44681e-05
-9.99032e-07
1.44703e-05
-1.08395e-06
1.44671e-05
-1.17191e-06
1.4458e-05
-1.26276e-06
1.44426e-05
-1.35623e-06
1.44205e-05
-1.45191e-06
1.43913e-05
-1.5493e-06
-1.64779e-06
1.43548e-05
1.0017e-05
5.53364e-08
1.00678e-05
1.67012e-07
1.01511e-05
2.75789e-07
1.02643e-05
3.78196e-07
1.04042e-05
4.71338e-07
1.05669e-05
5.52869e-07
1.07482e-05
6.21074e-07
1.09437e-05
6.74908e-07
1.11491e-05
7.13972e-07
1.13605e-05
7.38438e-07
1.15743e-05
7.48957e-07
1.17872e-05
7.46546e-07
1.19966e-05
7.32476e-07
1.22004e-05
7.0817e-07
1.23968e-05
6.75111e-07
1.25845e-05
6.34767e-07
1.27627e-05
5.88533e-07
1.29308e-05
5.3769e-07
1.30885e-05
4.83382e-07
1.32357e-05
4.26598e-07
1.33726e-05
3.68167e-07
1.34995e-05
3.08767e-07
1.36167e-05
2.48927e-07
1.37247e-05
1.8904e-07
1.38239e-05
1.2938e-07
1.3915e-05
7.01092e-08
1.39984e-05
1.12992e-08
1.40746e-05
-4.70609e-08
1.41442e-05
-1.0505e-07
1.42077e-05
-1.62803e-07
1.42654e-05
-2.20502e-07
1.43177e-05
-2.78368e-07
1.43651e-05
-3.36648e-07
1.44078e-05
-3.95613e-07
1.4446e-05
-4.55547e-07
1.448e-05
-5.1674e-07
1.45097e-05
-5.79481e-07
1.45353e-05
-6.4405e-07
1.45568e-05
-7.10709e-07
1.4574e-05
-7.79694e-07
1.45869e-05
-8.512e-07
1.4595e-05
-9.25376e-07
1.45983e-05
-1.00231e-06
1.45964e-05
-1.082e-06
1.45888e-05
-1.16439e-06
1.45754e-05
-1.24932e-06
1.45557e-05
-1.33651e-06
1.45294e-05
-1.42561e-06
1.44962e-05
-1.51617e-06
-1.60763e-06
1.44561e-05
1.0016e-05
3.93358e-08
1.00641e-05
1.18956e-07
1.01431e-05
1.9671e-07
1.02513e-05
2.70077e-07
1.03857e-05
3.3693e-07
1.0543e-05
3.9551e-07
1.07196e-05
4.44497e-07
1.09115e-05
4.83041e-07
1.11147e-05
5.10754e-07
1.13255e-05
5.27663e-07
1.15403e-05
5.34155e-07
1.17559e-05
5.30893e-07
1.19696e-05
5.18746e-07
1.21791e-05
4.98711e-07
1.23824e-05
4.71843e-07
1.25779e-05
4.39202e-07
1.27647e-05
4.01808e-07
1.29417e-05
3.60607e-07
1.31087e-05
3.16446e-07
1.32652e-05
2.70066e-07
1.34113e-05
2.22089e-07
1.3547e-05
1.73026e-07
1.36727e-05
1.23275e-07
1.37886e-05
7.31312e-08
1.38952e-05
2.27975e-08
1.39929e-05
-2.76081e-08
1.40822e-05
-7.80404e-08
1.41637e-05
-1.28518e-07
1.42378e-05
-1.79113e-07
1.43049e-05
-2.29943e-07
1.43656e-05
-2.81161e-07
1.44201e-05
-3.32952e-07
1.4469e-05
-3.85519e-07
1.45125e-05
-4.39086e-07
1.45508e-05
-4.93882e-07
1.45842e-05
-5.5014e-07
1.46128e-05
-6.0809e-07
1.46367e-05
-6.6795e-07
1.46559e-05
-7.29921e-07
1.46704e-05
-7.94175e-07
1.46801e-05
-8.60851e-07
1.46847e-05
-9.30042e-07
1.46842e-05
-1.00179e-06
1.46783e-05
-1.07606e-06
1.46666e-05
-1.15277e-06
1.46491e-05
-1.23174e-06
1.46253e-05
-1.31271e-06
1.4595e-05
-1.39536e-06
1.45581e-05
-1.47927e-06
-1.56396e-06
1.45145e-05
1.00153e-05
2.4055e-08
1.00613e-05
7.29244e-08
1.01373e-05
1.20714e-07
1.02416e-05
1.65769e-07
1.03719e-05
2.06681e-07
1.05251e-05
2.42272e-07
1.0698e-05
2.71638e-07
1.08868e-05
2.94174e-07
1.1088e-05
3.09574e-07
1.12979e-05
3.17801e-07
1.1513e-05
3.19057e-07
1.17301e-05
3.1373e-07
1.19465e-05
3.0235e-07
1.21597e-05
2.85536e-07
1.23676e-05
2.63955e-07
1.25685e-05
2.38283e-07
1.27611e-05
2.09172e-07
1.29445e-05
1.77233e-07
1.3118e-05
1.43011e-07
1.3281e-05
1.06984e-07
1.34336e-05
6.95516e-08
1.35756e-05
3.10375e-08
1.37071e-05
-8.30947e-09
1.38286e-05
-4.83101e-08
1.39402e-05
-8.88499e-08
1.40425e-05
-1.29872e-07
1.41358e-05
-1.7137e-07
1.42207e-05
-2.13384e-07
1.42976e-05
-2.55988e-07
1.43669e-05
-2.9929e-07
1.44292e-05
-3.43423e-07
1.44848e-05
-3.8854e-07
1.45341e-05
-4.34809e-07
1.45774e-05
-4.82406e-07
1.4615e-05
-5.31513e-07
1.46472e-05
-5.82311e-07
1.46741e-05
-6.34974e-07
1.46958e-05
-6.89663e-07
1.47124e-05
-7.46522e-07
1.47239e-05
-8.05669e-07
1.47302e-05
-8.67188e-07
1.47313e-05
-9.31126e-07
1.4727e-05
-9.97479e-07
1.47171e-05
-1.06619e-06
1.47015e-05
-1.13715e-06
1.46799e-05
-1.21017e-06
1.46522e-05
-1.285e-06
1.46182e-05
-1.36133e-06
1.45777e-05
-1.43879e-06
-1.51694e-06
1.45307e-05
1.00148e-05
9.25012e-09
1.00595e-05
2.82373e-08
1.01334e-05
4.67772e-08
1.02352e-05
6.40277e-08
1.03626e-05
7.92688e-08
1.0513e-05
9.18915e-08
1.06832e-05
1.0142e-07
1.08698e-05
1.07526e-07
1.10694e-05
1.10025e-07
1.12783e-05
1.0887e-07
1.14932e-05
1.04127e-07
1.1711e-05
9.59604e-08
1.19288e-05
8.46023e-08
1.2144e-05
7.03318e-08
1.23545e-05
5.34514e-08
1.25585e-05
3.42689e-08
1.27546e-05
1.30807e-08
1.29416e-05
-9.83929e-09
1.31189e-05
-3.42487e-08
1.32858e-05
-5.99419e-08
1.34421e-05
-8.67525e-08
1.35877e-05
-1.14555e-07
1.37227e-05
-1.43261e-07
1.38472e-05
-1.72822e-07
1.39616e-05
-2.03223e-07
1.40662e-05
-2.34478e-07
1.41614e-05
-2.6663e-07
1.42478e-05
-2.99746e-07
1.43257e-05
-3.33913e-07
1.43957e-05
-3.69235e-07
1.44581e-05
-4.05829e-07
1.45133e-05
-4.43823e-07
1.45619e-05
-4.8335e-07
1.4604e-05
-5.24546e-07
1.46401e-05
-5.67549e-07
1.46702e-05
-6.12491e-07
1.46948e-05
-6.59493e-07
1.47138e-05
-7.08667e-07
1.47273e-05
-7.60102e-07
1.47355e-05
-8.13867e-07
1.47384e-05
-8.69998e-07
1.47357e-05
-9.28498e-07
1.47276e-05
-9.89329e-07
1.47138e-05
-1.05241e-06
1.46942e-05
-1.11759e-06
1.46688e-05
-1.1847e-06
1.46373e-05
-1.25349e-06
1.45996e-05
-1.32365e-06
1.45556e-05
-1.39485e-06
-1.46669e-06
1.45054e-05
1.00146e-05
-5.30822e-09
1.00585e-05
-1.57492e-08
1.01314e-05
-2.6078e-08