/*--------------------------------*- C++ -*----------------------------------*\
| =========                 |                                                 |
| \\      /  F ield         | OpenFOAM: The Open Source CFD Toolbox           |
|  \\    /   O peration     | Version:  2306                                  |
|   \\  /    A nd           | Website:  www.openfoam.com                      |
|    \\/     M anipulation  |                                                 |
\*---------------------------------------------------------------------------*/
FoamFile
{
    version     2.0;
    format      ascii;
    arch        "LSB;label=32;scalar=64";
    class       volVectorField;
    location    "4.71";
    object      U;
}
// * * * * * * * * * * * * * * * * * * * * * * * * * * * * * * * * * * * * * //

dimensions      [0 1 -1 0 0 0 0];

internalField   nonuniform List<vector> 
1900
(
(0.984279 0.00728782 0)
(0.961754 0.0216861 0)
(0.952336 0.0181729 0)
(0.918698 0.025305 0)
(0.903428 0.0154364 0)
(0.863068 0.0257496 0)
(0.852282 0.0115914 0)
(0.811966 0.0267255 0)
(0.809682 0.00454923 0)
(0.77049 0.0259668 0)
(1.00256 0.0115589 0)
(1.00446 0.025861 0)
(1.01944 0.0289629 0)
(1.02197 0.0304541 0)
(1.03488 0.0280016 0)
(1.03397 0.0284142 0)
(1.04406 0.0257771 0)
(1.04279 0.0250822 0)
(1.0512 0.0206493 0)
(1.05228 0.0161763 0)
(1.00048 0.00388616 0)
(1.00419 0.0111544 0)
(1.01255 0.0139971 0)
(1.02113 0.0157849 0)
(1.03154 0.0147085 0)
(1.04054 0.0144143 0)
(1.04998 0.0123678 0)
(1.05839 0.0109188 0)
(1.06687 0.00729284 0)
(1.07471 0.00312762 0)
(1.00007 0.00207684 0)
(1.00313 0.00584211 0)
(1.00888 0.00805328 0)
(1.01649 0.00903222 0)
(1.02527 0.00855121 0)
(1.03431 0.00744926 0)
(1.04324 0.00566618 0)
(1.0518 0.00349951 0)
(1.05998 0.000667785 0)
(1.06765 -0.00285521 0)
(1.00003 0.000424337 0)
(1.00261 0.00117148 0)
(1.00738 0.00143339 0)
(1.01402 0.00115135 0)
(1.02191 0.000251024 0)
(1.03035 -0.00111547 0)
(1.03879 -0.00291282 0)
(1.04691 -0.00511877 0)
(1.05459 -0.00778032 0)
(1.06173 -0.0109592 0)
(1.00003 -0.00106068 0)
(1.00255 -0.00302714 0)
(1.0072 -0.00474937 0)
(1.01366 -0.0061882 0)
(1.02133 -0.0074892 0)
(1.02948 -0.00885327 0)
(1.03758 -0.0104663 0)
(1.04532 -0.0124391 0)
(1.05259 -0.014812 0)
(1.05936 -0.0175557 0)
(1.00003 -0.00271039 0)
(1.00303 -0.00743156 0)
(1.00836 -0.0110574 0)
(1.01546 -0.0134936 0)
(1.02347 -0.0151175 0)
(1.03163 -0.0164787 0)
(1.0395 -0.017982 0)
(1.04689 -0.0198057 0)
(1.05381 -0.0219426 0)
(1.06029 -0.0243032 0)
(1.00004 -0.00476879 0)
(1.00441 -0.0122317 0)
(1.01137 -0.0169142 0)
(1.0198 -0.0193436 0)
(1.02839 -0.0206683 0)
(1.0364 -0.021837 0)
(1.0436 -0.0232983 0)
(1.05007 -0.025079 0)
(1.05594 -0.027038 0)
(1.06125 -0.0290418 0)
(1.00006 -0.0121183 0)
(1.00722 -0.0259503 0)
(1.01558 -0.0314265 0)
(1.02287 -0.0325735 0)
(1.02794 -0.0326552 0)
(1.03073 -0.0330279 0)
(1.03174 -0.0338037 0)
(1.03144 -0.0347195 0)
(1.03003 -0.0355598 0)
(1.02753 -0.036265 0)
(0.980777 -0.00916337 0)
(0.964586 -0.018821 0)
(0.94546 -0.0220451 0)
(0.920794 -0.0221838 0)
(0.892007 -0.0217367 0)
(0.861698 -0.0215744 0)
(0.831464 -0.021605 0)
(0.801784 -0.021593 0)
(0.77259 -0.0214144 0)
(0.743638 -0.0210848 0)
(0.000207315 -0.000109565 0)
(0.000346532 -2.05289e-05 0)
(8.63367e-05 2.71089e-05 0)
(-0.000395882 5.64182e-05 0)
(-0.00104096 7.43829e-05 0)
(-0.00180673 9.16822e-05 0)
(-0.00267959 0.000111855 0)
(-0.00365452 0.000133873 0)
(-0.00472625 0.000156543 0)
(-0.00588855 0.00017918 0)
(-0.00713446 0.000201379 0)
(-0.00845662 0.00022285 0)
(-0.00984759 0.000243353 0)
(-0.0113 0.000262689 0)
(-0.0128068 0.000280703 0)
(-0.0143613 0.00029729 0)
(-0.0159571 0.000312392 0)
(-0.0175886 0.000325977 0)
(-0.0192504 0.000338016 0)
(-0.020938 0.000348519 0)
(-0.0226478 0.000357536 0)
(-0.0243772 0.000365159 0)
(-0.0261248 0.000371505 0)
(-0.0278907 0.000376699 0)
(-0.029676 0.000380883 0)
(-0.0314836 0.000384228 0)
(-0.033318 0.000386914 0)
(-0.0351852 0.000389056 0)
(-0.0370928 0.000390637 0)
(-0.0390496 0.000391452 0)
(-0.0410656 0.000391016 0)
(-0.0431519 0.000388523 0)
(-0.0453201 0.000383051 0)
(-0.0475839 0.000374197 0)
(-0.0499609 0.000362888 0)
(-0.0524747 0.000352101 0)
(-0.055158 0.000347816 0)
(-0.0580558 0.000360326 0)
(-0.0612292 0.000405274 0)
(-0.0647586 0.000504525 0)
(-0.0687455 0.000685791 0)
(-0.0733103 0.000979595 0)
(-0.0785838 0.0014127 0)
(-0.0846915 0.00199931 0)
(-0.0917299 0.00273167 0)
(-0.0997377 0.00357328 0)
(-0.10867 0.00446043 0)
(-0.118385 0.00531084 0)
(-0.128637 0.00603098 0)
(-0.139085 0.006532 0)
(-0.14932 0.00675116 0)
(-0.158904 0.006665 0)
(-0.167405 0.00629361 0)
(-0.174432 0.00570345 0)
(-0.179649 0.00497403 0)
(-0.182773 0.00410663 0)
(-0.183602 0.00307589 0)
(-0.18206 0.00188194 0)
(-0.178147 0.000626423 0)
(-0.171851 -0.000643695 0)
(-0.163253 -0.00188713 0)
(-0.152508 -0.00305576 0)
(-0.139772 -0.00413816 0)
(-0.125285 -0.00509391 0)
(-0.109265 -0.00590379 0)
(-0.0919589 -0.00657505 0)
(-0.0736751 -0.00708414 0)
(-0.0545825 -0.00742619 0)
(-0.0351705 -0.0076048 0)
(-0.015356 -0.00767886 0)
(0.00416929 -0.00760997 0)
(0.0238128 -0.00745929 0)
(0.0425951 -0.00717757 0)
(0.0613155 -0.0068557 0)
(0.078688 -0.00642222 0)
(0.0959516 -0.00599615 0)
(0.111458 -0.00547905 0)
(0.126971 -0.00501677 0)
(0.140376 -0.00448099 0)
(0.154075 -0.00405011 0)
(0.165321 -0.00355663 0)
(0.177365 -0.00321126 0)
(0.186535 -0.00280127 0)
(0.1973 -0.00258002 0)
(0.204544 -0.00228439 0)
(0.214645 -0.00221909 0)
(0.220028 -0.00204178 0)
(0.230539 -0.00216546 0)
(0.233736 -0.00208697 0)
(0.246557 -0.00263781 0)
(6.27911e-05 -0.000519308 0)
(-0.000521908 0.000139743 0)
(-0.0020144 0.000710989 0)
(-0.00392398 0.00111525 0)
(-0.00621873 0.00139424 0)
(-0.00882509 0.00161573 0)
(-0.0117056 0.00181594 0)
(-0.0148318 0.00200299 0)
(-0.018175 0.002177 0)
(-0.0217074 0.00233715 0)
(-0.025403 0.0024827 0)
(-0.0292368 0.00261345 0)
(-0.0331855 0.00272969 0)
(-0.0372275 0.002832 0)
(-0.0413436 0.00292118 0)
(-0.0455168 0.00299818 0)
(-0.0497327 0.00306406 0)
(-0.0539793 0.00311991 0)
(-0.0582474 0.00316695 0)
(-0.0625304 0.0032068 0)
(-0.0668248 0.00324152 0)
(-0.0711304 0.00327343 0)
(-0.0754503 0.00330507 0)
(-0.0797907 0.00333909 0)
(-0.0841611 0.00337836 0)
(-0.0885743 0.00342597 0)
(-0.0930463 0.00348524 0)
(-0.0975962 0.00355942 0)
(-0.102246 0.00365162 0)
(-0.10702 0.00376477 0)
(-0.111945 0.0039016 0)
(-0.117049 0.00406489 0)
(-0.122359 0.00425837 0)
(-0.127906 0.00448815 0)
(-0.133719 0.00476384 0)
(-0.13983 0.00509816 0)
(-0.146268 0.00550683 0)
(-0.153058 0.00600915 0)
(-0.16022 0.00662598 0)
(-0.167756 0.00737709 0)
(-0.175652 0.00827594 0)
(-0.183867 0.00932185 0)
(-0.192328 0.0104906 0)
(-0.200918 0.0117289 0)
(-0.209475 0.0129507 0)
(-0.217788 0.0140403 0)
(-0.225605 0.0148688 0)
(-0.232648 0.0153177 0)
(-0.238626 0.0152802 0)
(-0.243235 0.0146766 0)
(-0.246178 0.0134775 0)
(-0.247178 0.0117023 0)
(-0.245977 0.00937763 0)
(-0.242394 0.00655023 0)
(-0.236407 0.0033182 0)
(-0.22795 -0.000181692 0)
(-0.217028 -0.00385961 0)
(-0.203626 -0.00760349 0)
(-0.187779 -0.0113156 0)
(-0.169663 -0.0148899 0)
(-0.149337 -0.018272 0)
(-0.127136 -0.0213123 0)
(-0.103116 -0.0240424 0)
(-0.0776543 -0.0263985 0)
(-0.0509699 -0.0283874 0)
(-0.0232301 -0.0299955 0)
(0.00500979 -0.0311792 0)
(0.0341607 -0.0319774 0)
(0.0628591 -0.0323661 0)
(0.0923452 -0.0324343 0)
(0.12043 -0.032119 0)
(0.149476 -0.0315761 0)
(0.176167 -0.0306859 0)
(0.204119 -0.0296754 0)
(0.228765 -0.0283676 0)
(0.255193 -0.0270573 0)
(0.277317 -0.0255015 0)
(0.302044 -0.0240614 0)
(0.321336 -0.0224176 0)
(0.344432 -0.0210042 0)
(0.36071 -0.0194123 0)
(0.382496 -0.018162 0)
(0.395662 -0.0167351 0)
(0.416697 -0.0157634 0)
(0.426691 -0.0145899 0)
(0.447767 -0.0139997 0)
(0.454525 -0.0131455 0)
(0.476672 -0.0130481 0)
(0.480073 -0.012575 0)
(0.504409 -0.013171 0)
(-0.000159199 0.000422784 0)
(-0.00194325 0.00228577 0)
(-0.00542038 0.00350473 0)
(-0.00937391 0.00432247 0)
(-0.0137686 0.00496131 0)
(-0.0185028 0.00552703 0)
(-0.0235346 0.00604498 0)
(-0.028825 0.00651543 0)
(-0.0343212 0.00693419 0)
(-0.0399721 0.00729998 0)
(-0.0457313 0.00761299 0)
(-0.0515575 0.00787539 0)
(-0.0574148 0.00809086 0)
(-0.0632733 0.0082638 0)
(-0.0691084 0.008399 0)
(-0.0749007 0.00850149 0)
(-0.0806353 0.00857646 0)
(-0.0863016 0.00862938 0)
(-0.0918926 0.00866613 0)
(-0.0974043 0.00869266 0)
(-0.102836 0.0087151 0)
(-0.108192 0.00873978 0)
(-0.113476 0.00877305 0)
(-0.118696 0.00882118 0)
(-0.123861 0.00889035 0)
(-0.12898 0.0089868 0)
(-0.134063 0.00911669 0)
(-0.13912 0.00928559 0)
(-0.14416 0.00949798 0)
(-0.149189 0.00975739 0)
(-0.154211 0.0100661 0)
(-0.159224 0.010425 0)
(-0.164223 0.0108343 0)
(-0.169194 0.0112941 0)
(-0.174117 0.0118057 0)
(-0.178968 0.0123709 0)
(-0.183708 0.0129893 0)
(-0.188291 0.0136602 0)
(-0.192654 0.0143789 0)
(-0.196718 0.0151351 0)
(-0.200387 0.0159105 0)
(-0.203549 0.0166762 0)
(-0.20607 0.0173861 0)
(-0.207801 0.0179663 0)
(-0.20858 0.0183183 0)
(-0.20823 0.0183225 0)
(-0.206563 0.0178458 0)
(-0.203422 0.0167979 0)
(-0.198669 0.0151007 0)
(-0.192165 0.0126678 0)
(-0.1838 0.00947868 0)
(-0.173561 0.0055758 0)
(-0.161397 0.0010206 0)
(-0.147321 -0.00409336 0)
(-0.131301 -0.00972424 0)
(-0.113357 -0.0156362 0)
(-0.0934517 -0.0217044 0)
(-0.0719298 -0.0276776 0)
(-0.0486173 -0.033506 0)
(-0.024005 -0.0390258 0)
(0.0022101 -0.0441693 0)
(0.0295 -0.0487602 0)
(0.0579613 -0.0528344 0)
(0.0871678 -0.0562411 0)
(0.116816 -0.0590603 0)
(0.147198 -0.0612127 0)
(0.177164 -0.0627319 0)
(0.207982 -0.063599 0)
(0.23738 -0.0638823 0)
(0.267931 -0.0636196 0)
(0.295962 -0.062809 0)
(0.325628 -0.0615845 0)
(0.351649 -0.0598929 0)
(0.380002 -0.057947 0)
(0.403528 -0.0556326 0)
(0.430342 -0.0532351 0)
(0.451047 -0.0505661 0)
(0.476307 -0.047982 0)
(0.494005 -0.0452068 0)
(0.517896 -0.0426735 0)
(0.532511 -0.040004 0)
(0.555395 -0.037725 0)
(0.566926 -0.0353363 0)
(0.589318 -0.0334842 0)
(0.597812 -0.0315179 0)
(0.620357 -0.0302444 0)
(0.625886 -0.0288259 0)
(0.649335 -0.0282891 0)
(0.651963 -0.0275434 0)
(0.677109 -0.0278974 0)
(-0.000919891 0.00120854 0)
(-0.00479158 0.00508876 0)
(-0.0107037 0.00756682 0)
(-0.0167664 0.00923264 0)
(-0.0231585 0.0104731 0)
(-0.0298303 0.0114596 0)
(-0.036697 0.0122649 0)
(-0.0436619 0.0129265 0)
(-0.050635 0.0134592 0)
(-0.0575453 0.0138753 0)
(-0.064338 0.0141874 0)
(-0.0709699 0.0144075 0)
(-0.077409 0.0145474 0)
(-0.0836328 0.0146188 0)
(-0.0896264 0.0146329 0)
(-0.0953806 0.0146002 0)
(-0.100891 0.0145307 0)
(-0.106155 0.0144338 0)
(-0.111174 0.0143186 0)
(-0.115951 0.0141937 0)
(-0.12049 0.0140676 0)
(-0.124795 0.013948 0)
(-0.12887 0.0138422 0)
(-0.132719 0.0137563 0)
(-0.136343 0.0136956 0)
(-0.139742 0.0136647 0)
(-0.142913 0.0136677 0)
(-0.145851 0.0137072 0)
(-0.148546 0.0137835 0)
(-0.150987 0.013895 0)
(-0.153155 0.0140381 0)
(-0.155027 0.014207 0)
(-0.156573 0.014394 0)
(-0.157756 0.0145906 0)
(-0.158532 0.0147903 0)
(-0.158854 0.01499 0)
(-0.158661 0.0151792 0)
(-0.157889 0.0153479 0)
(-0.156459 0.0154814 0)
(-0.154283 0.0155586 0)
(-0.151257 0.0155498 0)
(-0.14727 0.0154194 0)
(-0.142218 0.0151236 0)
(-0.135987 0.0145819 0)
(-0.128475 0.0136959 0)
(-0.119601 0.0123736 0)
(-0.109221 0.0104157 0)
(-0.0972894 0.00779826 0)
(-0.0838649 0.00441893 0)
(-0.0688897 0.000300255 0)
(-0.0523352 -0.00460097 0)
(-0.0343532 -0.0102395 0)
(-0.014756 -0.0165591 0)
(0.0061809 -0.0233668 0)
(0.0286451 -0.0305033 0)
(0.0521741 -0.0377616 0)
(0.0772657 -0.0451064 0)
(0.103148 -0.0523036 0)
(0.130461 -0.0593058 0)
(0.158326 -0.065877 0)
(0.187359 -0.0719786 0)
(0.216694 -0.0773456 0)
(0.246774 -0.0821137 0)
(0.27704 -0.0860137 0)
(0.307387 -0.0891854 0)
(0.337899 -0.0914226 0)
(0.367708 -0.0928905 0)
(0.397817 -0.0934685 0)
(0.426327 -0.09332 0)
(0.455457 -0.0924071 0)
(0.482028 -0.0908616 0)
(0.509742 -0.0887232 0)
(0.533883 -0.0860824 0)
(0.559918 -0.0830533 0)
(0.581299 -0.0796657 0)
(0.605573 -0.0761061 0)
(0.624022 -0.0723237 0)
(0.646627 -0.0685799 0)
(0.662097 -0.064724 0)
(0.683279 -0.0611022 0)
(0.695818 -0.0574455 0)
(0.715946 -0.0542039 0)
(0.725666 -0.0509682 0)
(0.745211 -0.0483192 0)
(0.752253 -0.0456818 0)
(0.771762 -0.0438054 0)
(0.776276 -0.041916 0)
(0.796359 -0.0409777 0)
(0.79848 -0.0399724 0)
(0.819787 -0.0401267 0)
(-0.00127682 0.00691165 0)
(-0.00686594 0.0137554 0)
(-0.0154932 0.0163864 0)
(-0.0239945 0.017554 0)
(-0.0325119 0.0183981 0)
(-0.0407988 0.019191 0)
(-0.0487261 0.0198834 0)
(-0.0562523 0.0203985 0)
(-0.0633467 0.0207176 0)
(-0.0699764 0.0208668 0)
(-0.0761227 0.0208748 0)
(-0.081779 0.0207666 0)
(-0.086948 0.0205643 0)
(-0.0916391 0.0202876 0)
(-0.0958658 0.0199531 0)
(-0.0996443 0.0195756 0)
(-0.102992 0.0191674 0)
(-0.105924 0.0187385 0)
(-0.108457 0.0182977 0)
(-0.110603 0.0178535 0)
(-0.112376 0.0174136 0)
(-0.113783 0.0169847 0)
(-0.114831 0.0165721 0)
(-0.115525 0.0161796 0)
(-0.115864 0.015809 0)
(-0.115842 0.0154611 0)
(-0.11545 0.0151367 0)
(-0.114678 0.0148353 0)
(-0.113508 0.0145522 0)
(-0.11192 0.0142807 0)
(-0.10989 0.0140119 0)
(-0.107387 0.0137345 0)
(-0.104377 0.0134349 0)
(-0.100814 0.0130986 0)
(-0.0966465 0.0127143 0)
(-0.0918396 0.0122871 0)
(-0.0863202 0.011791 0)
(-0.0800344 0.0112068 0)
(-0.0729081 0.0105133 0)
(-0.0648643 0.00968513 0)
(-0.0558062 0.00868582 0)
(-0.0456276 0.00746096 0)
(-0.0342945 0.00594487 0)
(-0.0217202 0.00408196 0)
(-0.00777443 0.00180409 0)
(0.00746064 -0.000986016 0)
(0.0240588 -0.00438161 0)
(0.0420306 -0.00843056 0)
(0.0613797 -0.013243 0)
(0.0820022 -0.0188026 0)
(0.10409 -0.0251034 0)
(0.127168 -0.0320313 0)
(0.151649 -0.0395147 0)
(0.176857 -0.0474234 0)
(0.203464 -0.0556651 0)
(0.23047 -0.0639752 0)
(0.258801 -0.0723266 0)
(0.287255 -0.0804023 0)
(0.316879 -0.0882092 0)
(0.34633 -0.0954045 0)
(0.376678 -0.102041 0)
(0.406562 -0.107784 0)
(0.436947 -0.112763 0)
(0.466635 -0.116678 0)
(0.496327 -0.119713 0)
(0.52518 -0.121621 0)
(0.553469 -0.122634 0)
(0.58094 -0.122569 0)
(0.607233 -0.121684 0)
(0.632922 -0.119858 0)
(0.656785 -0.117355 0)
(0.680466 -0.114112 0)
(0.70163 -0.110374 0)
(0.723246 -0.106133 0)
(0.741592 -0.101593 0)
(0.761238 -0.0967932 0)
(0.776776 -0.091876 0)
(0.794669 -0.0869322 0)
(0.807498 -0.0820196 0)
(0.823953 -0.0772896 0)
(0.834226 -0.0727 0)
(0.849622 -0.0684783 0)
(0.857516 -0.0644656 0)
(0.872281 -0.0609884 0)
(0.877975 -0.0577523 0)
(0.892569 -0.055211 0)
(0.896222 -0.0529114 0)
(0.91113 -0.0514702 0)
(0.912862 -0.0502469 0)
(0.92859 -0.0500659 0)
(-0.00367557 0.00679254 0)
(-0.0134981 0.0172279 0)
(-0.024559 0.0219575 0)
(-0.0336908 0.0246341 0)
(-0.0419753 0.0262425 0)
(-0.0496079 0.0271029 0)
(-0.0565465 0.0273929 0)
(-0.0626646 0.0272983 0)
(-0.0678693 0.0269564 0)
(-0.0721626 0.026439 0)
(-0.0756012 0.025793 0)
(-0.0782446 0.0250513 0)
(-0.0801533 0.024242 0)
(-0.081385 0.023388 0)
(-0.0819931 0.0225069 0)
(-0.0820265 0.0216126 0)
(-0.0815291 0.020716 0)
(-0.080538 0.0198235 0)
(-0.0790842 0.0189398 0)
(-0.0771941 0.0180701 0)
(-0.0748885 0.0172185 0)
(-0.0721833 0.0163874 0)
(-0.0690891 0.0155773 0)
(-0.0656117 0.0147876 0)
(-0.0617493 0.0140145 0)
(-0.0574936 0.013254 0)
(-0.0528317 0.0125037 0)
(-0.0477542 0.0117643 0)
(-0.042235 0.0110253 0)
(-0.0362499 0.0102755 0)
(-0.0297696 0.00950302 0)
(-0.022762 0.00869399 0)
(-0.0151893 0.0078317 0)
(-0.00700559 0.00689637 0)
(0.001889 0.00585584 0)
(0.0114398 0.0046805 0)
(0.0217602 0.00336675 0)
(0.0328969 0.00190491 0)
(0.0449175 0.000265894 0)
(0.0578819 -0.00158414 0)
(0.0718616 -0.00368134 0)
(0.0869185 -0.00606462 0)
(0.103106 -0.00879384 0)
(0.120453 -0.0119403 0)
(0.139104 -0.0155409 0)
(0.158962 -0.0197302 0)
(0.18018 -0.0245087 0)
(0.202485 -0.0299234 0)
(0.226175 -0.0359947 0)
(0.250752 -0.0427137 0)
(0.276687 -0.0501022 0)
(0.303219 -0.0580327 0)
(0.331008 -0.0664733 0)
(0.35905 -0.0752099 0)
(0.388227 -0.084194 0)
(0.417285 -0.0931373 0)
(0.447298 -0.102002 0)
(0.476797 -0.11046 0)
(0.507026 -0.118507 0)
(0.536329 -0.125795 0)
(0.566078 -0.132373 0)
(0.594502 -0.137905 0)
(0.623054 -0.14251 0)
(0.649948 -0.145891 0)
(0.676654 -0.148246 0)
(0.701492 -0.149325 0)
(0.725855 -0.1494 0)
(0.748308 -0.148267 0)
(0.770029 -0.146255 0)
(0.789973 -0.143198 0)
(0.808936 -0.139462 0)
(0.826428 -0.134912 0)
(0.842673 -0.129923 0)
(0.857906 -0.124379 0)
(0.871577 -0.118644 0)
(0.884839 -0.112611 0)
(0.896143 -0.10661 0)
(0.907773 -0.100542 0)
(0.916943 -0.0946895 0)
(0.927302 -0.0889691 0)
(0.934566 -0.0836025 0)
(0.944017 -0.0785326 0)
(0.949582 -0.0739128 0)
(0.958481 -0.0697276 0)
(0.962516 -0.0660526 0)
(0.97121 -0.062934 0)
(0.973842 -0.0603568 0)
(0.98267 -0.0584537 0)
(0.983962 -0.0571026 0)
(0.993252 -0.0565539 0)
(-0.00179885 0.0287853 0)
(-0.00959271 0.0405247 0)
(-0.0241131 0.0404661 0)
(-0.0355354 0.0380517 0)
(-0.0445879 0.0362083 0)
(-0.0510239 0.0347235 0)
(-0.0551451 0.0332482 0)
(-0.0573501 0.0317083 0)
(-0.0580005 0.0301159 0)
(-0.0573745 0.0284959 0)
(-0.0556617 0.026871 0)
(-0.0530094 0.0252547 0)
(-0.0495436 0.0236646 0)
(-0.0453705 0.0221125 0)
(-0.0405796 0.0206043 0)
(-0.0352464 0.0191433 0)
(-0.0294371 0.0177307 0)
(-0.0232014 0.0163608 0)
(-0.0165759 0.0150277 0)
(-0.00959691 0.013734 0)
(-0.00228872 0.0124795 0)
(0.00533225 0.0112614 0)
(0.0132561 0.0100762 0)
(0.021478 0.00891935 0)
(0.0300076 0.00777934 0)
(0.0388627 0.00664361 0)
(0.048074 0.00549459 0)
(0.0576273 0.00431551 0)
(0.0675705 0.00310245 0)
(0.077936 0.00184824 0)
(0.0887608 0.000537744 0)
(0.100082 -0.000848844 0)
(0.111952 -0.00233217 0)
(0.124388 -0.00393633 0)
(0.137488 -0.00567791 0)
(0.151218 -0.00758931 0)
(0.165691 -0.00970014 0)
(0.180956 -0.0120323 0)
(0.197077 -0.0146097 0)
(0.214071 -0.0174659 0)
(0.232034 -0.0206353 0)
(0.250948 -0.0241589 0)
(0.270945 -0.028068 0)
(0.291931 -0.0324062 0)
(0.31409 -0.0372269 0)
(0.337208 -0.0425804 0)
(0.361527 -0.0485097 0)
(0.386653 -0.0550193 0)
(0.412923 -0.0621326 0)
(0.439754 -0.0698013 0)
(0.467597 -0.0780161 0)
(0.495658 -0.0866466 0)
(0.524527 -0.0956361 0)
(0.553186 -0.104775 0)
(0.582399 -0.113989 0)
(0.610921 -0.123012 0)
(0.63972 -0.131773 0)
(0.667327 -0.139974 0)
(0.694939 -0.147578 0)
(0.720873 -0.154278 0)
(0.746575 -0.160099 0)
(0.770178 -0.164745 0)
(0.793377 -0.168325 0)
(0.814169 -0.170574 0)
(0.834482 -0.171694 0)
(0.852232 -0.171462 0)
(0.869535 -0.170174 0)
(0.88428 -0.167639 0)
(0.898684 -0.16423 0)
(0.910667 -0.159775 0)
(0.922443 -0.154702 0)
(0.932036 -0.14884 0)
(0.941539 -0.142644 0)
(0.949167 -0.135931 0)
(0.956771 -0.129161 0)
(0.962856 -0.122123 0)
(0.968908 -0.115271 0)
(0.973834 -0.108362 0)
(0.978625 -0.101838 0)
(0.982722 -0.0954256 0)
(0.986485 -0.0895497 0)
(0.990027 -0.0839159 0)
(0.992931 -0.0789303 0)
(0.996146 -0.0742847 0)
(0.998305 -0.070368 0)
(1.00138 -0.0668676 0)
(1.00285 -0.0641543 0)
(1.00596 -0.0619232 0)
(1.00674 -0.0605215 0)
(1.01 -0.0596646 0)
(-0.0196181 0.00825119 0)
(-0.0378863 0.0319044 0)
(-0.0411162 0.0392311 0)
(-0.0432433 0.0400208 0)
(-0.0421543 0.03836 0)
(-0.0387179 0.0356021 0)
(-0.0333905 0.0325355 0)
(-0.0265144 0.0294904 0)
(-0.0183439 0.0265686 0)
(-0.0091664 0.0238352 0)
(0.000835214 0.02127 0)
(0.011499 0.0188464 0)
(0.0226685 0.0165622 0)
(0.0342319 0.0144115 0)
(0.0461019 0.0123854 0)
(0.0582117 0.0104745 0)
(0.0704896 0.00867283 0)
(0.0829036 0.00697761 0)
(0.0954568 0.00537658 0)
(0.108108 0.0038445 0)
(0.120844 0.00235947 0)
(0.133665 0.000906847 0)
(0.146578 -0.00052416 0)
(0.159576 -0.00194479 0)
(0.172696 -0.00336405 0)
(0.185957 -0.00479471 0)
(0.199398 -0.00625292 0)
(0.21303 -0.00776124 0)
(0.226913 -0.00933908 0)
(0.241091 -0.0110037 0)
(0.255604 -0.0127724 0)
(0.270496 -0.0146666 0)
(0.285816 -0.0167079 0)
(0.301604 -0.01892 0)
(0.317916 -0.0213266 0)
(0.334787 -0.023942 0)
(0.352272 -0.0267883 0)
(0.370403 -0.0298998 0)
(0.389242 -0.0333003 0)
(0.408789 -0.0370227 0)
(0.429118 -0.0410901 0)
(0.450189 -0.0455377 0)
(0.472091 -0.0503901 0)
(0.494721 -0.0556829 0)
(0.518184 -0.0614399 0)
(0.542285 -0.067687 0)
(0.567145 -0.0744348 0)
(0.592446 -0.0816747 0)
(0.618342 -0.0893874 0)
(0.644371 -0.0975168 0)
(0.67075 -0.106007 0)
(0.696855 -0.114742 0)
(0.723005 -0.12363 0)
(0.748387 -0.132499 0)
(0.773476 -0.141234 0)
(0.797272 -0.149617 0)
(0.820474 -0.157537 0)
(0.841877 -0.164753 0)
(0.862472 -0.171191 0)
(0.880842 -0.176612 0)
(0.898324 -0.181013 0)
(0.91328 -0.184171 0)
(0.927429 -0.18618 0)
(0.938893 -0.186846 0)
(0.949785 -0.186368 0)
(0.957978 -0.184573 0)
(0.96596 -0.181766 0)
(0.971341 -0.177787 0)
(0.976935 -0.173029 0)
(0.980083 -0.167326 0)
(0.983867 -0.161137 0)
(0.98537 -0.154265 0)
(0.987882 -0.147209 0)
(0.988258 -0.139723 0)
(0.989941 -0.132331 0)
(0.989598 -0.124728 0)
(0.990777 -0.117453 0)
(0.990004 -0.110143 0)
(0.990899 -0.10335 0)
(0.989887 -0.0966533 0)
(0.990626 -0.0906223 0)
(0.989489 -0.0847826 0)
(0.990141 -0.0797218 0)
(0.988938 -0.0749161 0)
(0.98952 -0.0709769 0)
(0.988273 -0.0673347 0)
(0.988762 -0.0646295 0)
(0.98746 -0.0622494 0)
(0.987791 -0.0608659 0)
(0.986396 -0.0598254 0)
(-0.0189959 0.107954 0)
(-0.0182083 0.0727617 0)
(-0.0113743 0.058046 0)
(0.00110592 0.0461502 0)
(0.0174346 0.0363362 0)
(0.035921 0.028796 0)
(0.0556188 0.0228765 0)
(0.075789 0.0180199 0)
(0.0962446 0.0138451 0)
(0.116463 0.0101698 0)
(0.136509 0.00692546 0)
(0.156349 0.00406511 0)
(0.175851 0.00151526 0)
(0.195 -0.000792293 0)
(0.213788 -0.00290259 0)
(0.232218 -0.00484583 0)
(0.250287 -0.0066458 0)
(0.268005 -0.00832452 0)
(0.285403 -0.00990287 0)
(0.302475 -0.0114057 0)
(0.319245 -0.0128602 0)
(0.335748 -0.0142918 0)
(0.352019 -0.0157222 0)
(0.368087 -0.01717 0)
(0.384009 -0.0186509 0)
(0.399828 -0.02018 0)
(0.415587 -0.0217749 0)
(0.431333 -0.0234514 0)
(0.447115 -0.0252305 0)
(0.462989 -0.0271366 0)
(0.478999 -0.0291901 0)
(0.4952 -0.0314138 0)
(0.511629 -0.0338259 0)
(0.528336 -0.036449 0)
(0.545353 -0.0392998 0)
(0.562722 -0.0424011 0)
(0.580467 -0.0457686 0)
(0.598616 -0.0494284 0)
(0.617187 -0.0533952 0)
(0.636187 -0.0576943 0)
(0.65562 -0.0623366 0)
(0.675464 -0.0673462 0)
(0.695709 -0.0727298 0)
(0.716294 -0.0785087 0)
(0.737188 -0.0846832 0)
(0.758269 -0.0912649 0)
(0.779489 -0.0982351 0)
(0.800648 -0.105578 0)
(0.821694 -0.113241 0)
(0.842338 -0.121171 0)
(0.86255 -0.129276 0)
(0.881946 -0.137459 0)
(0.900561 -0.145595 0)
(0.917907 -0.153547 0)
(0.934161 -0.161168 0)
(0.948727 -0.168294 0)
(0.961996 -0.174785 0)
(0.973241 -0.180473 0)
(0.983149 -0.185259 0)
(0.990824 -0.188991 0)
(0.997328 -0.191642 0)
(1.00153 -0.193087 0)
(1.00493 -0.193397 0)
(1.00608 -0.192471 0)
(1.00694 -0.190483 0)
(1.00567 -0.187337 0)
(1.00473 -0.183309 0)
(1.00175 -0.178288 0)
(0.999724 -0.172646 0)
(0.995713 -0.166231 0)
(0.993211 -0.15949 0)
(0.988687 -0.152199 0)
(0.98616 -0.14487 0)
(0.981474 -0.137192 0)
(0.979196 -0.129732 0)
(0.974542 -0.122086 0)
(0.972645 -0.114876 0)
(0.968095 -0.107604 0)
(0.96662 -0.100949 0)
(0.962168 -0.0943186 0)
(0.961102 -0.0884565 0)
(0.9567 -0.0826759 0)
(0.956008 -0.0777866 0)
(0.951585 -0.0730107 0)
(0.951213 -0.069227 0)
(0.946674 -0.0655683 0)
(0.946552 -0.0629853 0)
(0.941779 -0.0605252 0)
(0.941807 -0.0592117 0)
(0.936658 -0.0580106 0)
(0.0698913 0.00704488 0)
(0.0898338 0.00651917 0)
(0.153493 0.00605063 0)
(0.198393 0.00286373 0)
(0.237202 -0.00143728 0)
(0.272489 -0.00555891 0)
(0.30507 -0.00911617 0)
(0.334796 -0.0121272 0)
(0.362442 -0.0147035 0)
(0.388262 -0.0169238 0)
(0.412617 -0.0188679 0)
(0.435732 -0.0205898 0)
(0.457684 -0.022128 0)
(0.478589 -0.0235159 0)
(0.498549 -0.0247789 0)
(0.517654 -0.0259375 0)
(0.535972 -0.0270115 0)
(0.553568 -0.0280228 0)
(0.570499 -0.0289969 0)
(0.586822 -0.0299538 0)
(0.602588 -0.0309136 0)
(0.617856 -0.0318973 0)
(0.632679 -0.0329258 0)
(0.647117 -0.0340183 0)
(0.661227 -0.0351943 0)
(0.675065 -0.0364729 0)
(0.688677 -0.0378709 0)
(0.702119 -0.0394057 0)
(0.715432 -0.0410941 0)
(0.728669 -0.0429551 0)
(0.741866 -0.0450052 0)
(0.755074 -0.0472626 0)
(0.768315 -0.0497434 0)
(0.781627 -0.0524661 0)
(0.795024 -0.0554445 0)
(0.808531 -0.0586955 0)
(0.822145 -0.0622297 0)
(0.835881 -0.0660626 0)
(0.849717 -0.070202 0)
(0.86365 -0.0746613 0)
(0.877636 -0.0794437 0)
(0.891651 -0.0845587 0)
(0.905624 -0.0900025 0)
(0.919503 -0.095779 0)
(0.933187 -0.101873 0)
(0.94659 -0.108278 0)
(0.959585 -0.114958 0)
(0.972056 -0.121882 0)
(0.983857 -0.128985 0)
(0.99484 -0.136206 0)
(1.00487 -0.143447 0)
(1.01377 -0.150616 0)
(1.02146 -0.157582 0)
(1.02775 -0.164231 0)
(1.03265 -0.170417 0)
(1.03598 -0.176023 0)
(1.03791 -0.180913 0)
(1.0382 -0.184989 0)
(1.03726 -0.188151 0)
(1.03477 -0.190335 0)
(1.03139 -0.191497 0)
(1.02664 -0.191608 0)
(1.02152 -0.190695 0)
(1.0152 -0.188752 0)
(1.00909 -0.185884 0)
(1.0019 -0.18209 0)
(0.995497 -0.177554 0)
(0.987978 -0.172249 0)
(0.981788 -0.166436 0)
(0.974276 -0.16003 0)
(0.9686 -0.15337 0)
(0.961242 -0.146276 0)
(0.956207 -0.139175 0)
(0.949006 -0.131777 0)
(0.944629 -0.124608 0)
(0.937511 -0.117247 0)
(0.933764 -0.110333 0)
(0.926627 -0.103301 0)
(0.923477 -0.096917 0)
(0.916219 -0.0904568 0)
(0.913651 -0.0848299 0)
(0.906171 -0.0791377 0)
(0.904185 -0.0744489 0)
(0.896377 -0.0696757 0)
(0.894974 -0.0660603 0)
(0.886702 -0.0623122 0)
(0.885864 -0.0598612 0)
(0.876952 -0.0572041 0)
(0.876621 -0.0559696 0)
(0.866846 -0.0544373 0)
(0.773646 -0.00919018 0)
(0.775201 -0.020611 0)
(0.776037 -0.0268259 0)
(0.777716 -0.0305237 0)
(0.781365 -0.0331762 0)
(0.786756 -0.0353828 0)
(0.793611 -0.0372704 0)
(0.801298 -0.0388068 0)
(0.809593 -0.040009 0)
(0.818288 -0.0409153 0)
(0.827199 -0.0416013 0)
(0.836199 -0.0421404 0)
(0.845189 -0.0425757 0)
(0.854095 -0.0429326 0)
(0.862865 -0.0432293 0)
(0.87146 -0.0434817 0)
(0.879848 -0.0437068 0)
(0.88801 -0.043923 0)
(0.895934 -0.0441503 0)
(0.903619 -0.0444089 0)
(0.911069 -0.0447189 0)
(0.918295 -0.045101 0)
(0.925314 -0.0455757 0)
(0.932145 -0.0461637 0)
(0.938813 -0.0468861 0)
(0.945338 -0.0477622 0)
(0.951743 -0.0488095 0)
(0.958049 -0.0500434 0)
(0.964276 -0.0514782 0)
(0.970444 -0.0531275 0)
(0.976566 -0.0550041 0)
(0.982657 -0.0571202 0)
(0.988721 -0.0594876 0)
(0.994765 -0.0621171 0)
(1.00078 -0.0650179 0)
(1.00677 -0.0681984 0)
(1.01271 -0.0716648 0)
(1.01859 -0.0754225 0)
(1.02438 -0.0794744 0)
(1.03004 -0.0838227 0)
(1.03554 -0.0884657 0)
(1.04082 -0.0934002 0)
(1.04583 -0.098617 0)
(1.0505 -0.104104 0)
(1.05474 -0.109839 0)
(1.0585 -0.115795 0)
(1.06167 -0.12193 0)
(1.06419 -0.128201 0)
(1.06594 -0.134543 0)
(1.06687 -0.14089 0)
(1.06688 -0.147153 0)
(1.06594 -0.153248 0)
(1.06399 -0.159065 0)
(1.06104 -0.164513 0)
(1.05708 -0.169476 0)
(1.05217 -0.173872 0)
(1.04638 -0.177593 0)
(1.03979 -0.180581 0)
(1.03255 -0.18275 0)
(1.02473 -0.184077 0)
(1.01658 -0.18451 0)
(1.00804 -0.184066 0)
(0.999507 -0.182731 0)
(0.9907 -0.180552 0)
(0.982183 -0.177556 0)
(0.973342 -0.173808 0)
(0.965039 -0.169375 0)
(0.956189 -0.164312 0)
(0.948129 -0.158727 0)
(0.939163 -0.152644 0)
(0.931309 -0.146229 0)
(0.922078 -0.139449 0)
(0.9144 -0.132545 0)
(0.904778 -0.125396 0)
(0.897307 -0.118347 0)
(0.887225 -0.111157 0)
(0.880078 -0.1043 0)
(0.869514 -0.0973753 0)
(0.862867 -0.0910153 0)
(0.851811 -0.0846142 0)
(0.845872 -0.0790022 0)
(0.83428 -0.0733228 0)
(0.829258 -0.0686555 0)
(0.81702 -0.0638393 0)
(0.813108 -0.0602588 0)
(0.800009 -0.0563884 0)
(0.797369 -0.0539813 0)
(0.783075 -0.0510846 0)
(0.78183 -0.0498868 0)
(0.765888 -0.0479442 0)
(1.05716 0.00828769 0)
(1.06025 -9.89478e-05 0)
(1.06097 -0.00725435 0)
(1.06023 -0.0129093 0)
(1.05935 -0.0175398 0)
(1.05905 -0.021554 0)
(1.05946 -0.0251271 0)
(1.06043 -0.02827 0)
(1.06174 -0.0309788 0)
(1.06325 -0.0332734 0)
(1.06485 -0.0351978 0)
(1.0665 -0.0368058 0)
(1.06818 -0.0381496 0)
(1.06986 -0.0392744 0)
(1.07153 -0.0402196 0)
(1.07316 -0.0410201 0)
(1.07473 -0.0417087 0)
(1.07623 -0.0423172 0)
(1.07764 -0.0428767 0)
(1.07897 -0.043418 0)
(1.08019 -0.0439709 0)
(1.08132 -0.0445642 0)
(1.08236 -0.0452258 0)
(1.08332 -0.0459824 0)
(1.08419 -0.0468593 0)
(1.08499 -0.0478794 0)
(1.08572 -0.0490632 0)
(1.08639 -0.0504286 0)
(1.087 -0.0519914 0)
(1.08755 -0.0537656 0)
(1.08804 -0.0557637 0)
(1.08847 -0.0579963 0)
(1.08884 -0.060472 0)
(1.08913 -0.0631975 0)
(1.08934 -0.0661785 0)
(1.08945 -0.0694188 0)
(1.08945 -0.072921 0)
(1.08932 -0.0766858 0)
(1.08902 -0.0807125 0)
(1.08854 -0.0849975 0)
(1.08785 -0.0895353 0)
(1.08691 -0.0943164 0)
(1.08568 -0.0993274 0)
(1.08414 -0.10455 0)
(1.08223 -0.109958 0)
(1.07993 -0.115521 0)
(1.07719 -0.121199 0)
(1.07399 -0.126945 0)
(1.07029 -0.132703 0)
(1.06606 -0.138408 0)
(1.0613 -0.143989 0)
(1.05601 -0.149366 0)
(1.05018 -0.154459 0)
(1.04385 -0.159187 0)
(1.03703 -0.163466 0)
(1.02978 -0.167225 0)
(1.02211 -0.170385 0)
(1.0141 -0.172888 0)
(1.00575 -0.174667 0)
(0.997111 -0.175684 0)
(0.988178 -0.17589 0)
(0.97896 -0.175282 0)
(0.969438 -0.173837 0)
(0.959556 -0.171594 0)
(0.949329 -0.168555 0)
(0.938603 -0.16479 0)
(0.927518 -0.160311 0)
(0.915766 -0.155203 0)
(0.903728 -0.149493 0)
(0.890853 -0.143288 0)
(0.87792 -0.136651 0)
(0.863977 -0.129693 0)
(0.850388 -0.122508 0)
(0.835564 -0.115179 0)
(0.821694 -0.10784 0)
(0.806247 -0.100522 0)
(0.792564 -0.0934235 0)
(0.776756 -0.0864745 0)
(0.763759 -0.079963 0)
(0.747775 -0.0736573 0)
(0.735935 -0.0679851 0)
(0.719796 -0.0624924 0)
(0.709532 -0.0578261 0)
(0.693054 -0.0532291 0)
(0.684757 -0.0496731 0)
(0.667507 -0.0459869 0)
(0.661583 -0.0436052 0)
(0.642847 -0.0407928 0)
(0.639771 -0.0396124 0)
(0.618521 -0.0375845 0)
(1.08188 -0.0032503 0)
(1.08785 -0.01083 0)
(1.09216 -0.0181667 0)
(1.09483 -0.0242656 0)
(1.09635 -0.0289837 0)
(1.09734 -0.0326458 0)
(1.09818 -0.0356101 0)
(1.09904 -0.0381035 0)
(1.0999 -0.0402194 0)
(1.10073 -0.0419847 0)
(1.10148 -0.0434135 0)
(1.10213 -0.0445314 0)
(1.10268 -0.0453781 0)
(1.10315 -0.0460002 0)
(1.10354 -0.0464445 0)
(1.10385 -0.0467542 0)
(1.10408 -0.0469686 0)
(1.10422 -0.0471239 0)
(1.10428 -0.0472539 0)
(1.10424 -0.047391 0)
(1.1041 -0.0475659 0)
(1.10386 -0.0478079 0)
(1.10353 -0.0481444 0)
(1.10309 -0.048601 0)
(1.10257 -0.0492011 0)
(1.10194 -0.0499656 0)
(1.10123 -0.0509129 0)
(1.10043 -0.052059 0)
(1.09954 -0.0534175 0)
(1.09855 -0.0549995 0)
(1.09747 -0.0568141 0)
(1.0963 -0.0588686 0)
(1.09502 -0.0611682 0)
(1.09364 -0.0637165 0)
(1.09214 -0.0665159 0)
(1.09052 -0.0695675 0)
(1.08877 -0.0728711 0)