/*--------------------------------*- C++ -*----------------------------------*\
| =========                 |                                                 |
| \\      /  F ield         | OpenFOAM: The Open Source CFD Toolbox           |
|  \\    /   O peration     | Version:  2306                                  |
|   \\  /    A nd           | Website:  www.openfoam.com                      |
|    \\/     M anipulation  |                                                 |
\*---------------------------------------------------------------------------*/
FoamFile
{
    version     2.0;
    format      ascii;
    arch        "LSB;label=32;scalar=64";
    class       volScalarField;
    location    "1.26";
    object      p;
}
// * * * * * * * * * * * * * * * * * * * * * * * * * * * * * * * * * * * * * //

dimensions      [0 2 -2 0 0 0 0];

internalField   nonuniform List<scalar> 
47500
(
14.2636
8.31617
5.39827
4.19502
3.55688
3.16767
2.91731
2.74431
2.61606
2.51598
2.43485
2.3671
2.3091
2.25842
2.21333
2.17257
2.13521
2.10052
2.06795
2.03708
2.00753
1.97905
1.9514
1.92439
1.89786
1.87169
1.84578
1.82002
1.79434
1.76868
1.74298
1.71719
1.69129
1.66524
1.63902
1.61262
1.58607
1.55937
1.53258
1.50581
1.4792
1.453
1.42762
1.40364
1.38187
1.36301
1.34746
1.33359
1.28841
1.04328
9.49512
7.11984
5.49165
4.53467
3.89692
3.45613
3.14915
2.92822
2.7627
2.63424
2.53143
2.44689
2.37569
2.31445
2.26079
2.21298
2.16975
2.13012
2.09336
2.05889
2.02625
1.99508
1.96506
1.93597
1.9076
1.87979
1.85238
1.82528
1.79836
1.77156
1.74478
1.71797
1.69108
1.66405
1.63684
1.60941
1.58174
1.55381
1.52559
1.49708
1.46827
1.43913
1.40959
1.37942
1.34803
1.31385
1.27372
1.22201
1.13978
0.970469
6.67607
5.93528
5.12721
4.46307
3.94452
3.54967
3.25204
3.02532
2.84923
2.70955
2.59637
2.50272
2.42371
2.35583
2.29651
2.24387
2.1965
2.15332
2.11347
2.07632
2.04133
2.00808
1.97623
1.94552
1.91569
1.88656
1.85797
1.82977
1.80186
1.77412
1.74646
1.71881
1.69108
1.66323
1.63518
1.60687
1.57824
1.54924
1.51977
1.48976
1.45906
1.42747
1.39466
1.36002
1.32251
1.28019
1.22989
1.16697
1.0827
0.962359
5.23432
5.05264
4.64952
4.21694
3.83684
3.52092
3.26393
3.0562
2.88764
2.74955
2.63501
2.53867
2.45645
2.38528
2.32282
2.26726
2.21722
2.17162
2.1296
2.09049
2.05375
2.01893
1.98567
1.95366
1.92267
1.89249
1.86292
1.83383
1.80508
1.77656
1.74816
1.71979
1.69137
1.66281
1.63404
1.60497
1.57553
1.54561
1.51511
1.48386
1.45169
1.4183
1.38327
1.34597
1.30545
1.26024
1.2083
1.14714
1.07329
0.983905
4.39926
4.41398
4.2239
3.95437
3.68731
3.44491
3.23307
3.05192
2.89835
2.76817
2.65727
2.56207
2.47956
2.40732
2.34337
2.28617
2.23444
2.18718
2.14359
2.103
2.06488
2.02878
1.99434
1.96126
1.92927
1.89816
1.86775
1.83786
1.80837
1.77914
1.75007
1.72106
1.692
1.66281
1.6334
1.60367
1.57351
1.54282
1.51146
1.47925
1.44598
1.41135
1.37496
1.33628
1.29458
1.24894
1.19831
1.14172
1.07853
1.00976
3.87569
3.95339
3.8749
3.71213
3.52866
3.34704
3.17726
3.02417
2.88874
2.76992
2.66588
2.57456
2.49402
2.4225
2.35852
2.3008
2.24828
2.20009
2.15549
2.11388
2.07475
2.03768
2.00231
1.96835
1.93553
1.90364
1.8725
1.84193
1.81178
1.78194
1.75229
1.72271
1.6931
1.66337
1.63341
1.60312
1.5724
1.54111
1.50912
1.47625
1.4423
1.40699
1.37002
1.33097
1.28941
1.24482
1.19684
1.1454
1.09107
1.03589
3.53079
3.61953
3.5962
3.49997
3.37561
3.24161
3.10812
2.98151
2.86481
2.75892
2.66357
2.57794
2.50099
2.43161
2.36876
2.31149
2.25898
2.2105
2.16542
2.12321
2.08343
2.04568
2.00962
1.97498
1.94151
1.90899
1.87724
1.84609
1.8154
1.78504
1.75489
1.72483
1.69477
1.66459
1.6342
1.60349
1.57235
1.54066
1.50829
1.47507
1.44082
1.40535
1.36842
1.32979
1.28921
1.24653
1.20177
1.1553
1.10809
1.06205
3.29069
3.37293
3.37571
3.32013
3.23647
3.1384
3.03457
2.93124
2.83219
2.73933
2.6534
2.57443
2.50208
2.43579
2.37494
2.31889
2.26702
2.21878
2.17368
2.13126
2.09113
2.05295
2.01643
1.98129
1.94732
1.9143
1.88207
1.85045
1.81931
1.78852
1.75796
1.72752
1.69709
1.66657
1.63587
1.60487
1.57347
1.54157
1.50904
1.47574
1.44155
1.40632
1.3699
1.33217
1.29308
1.25266
1.21116
1.16913
1.12753
1.08791
3.11484
3.18639
3.20097
3.17008
3.11407
3.04249
2.96211
2.8784
2.7951
2.71453
2.63796
2.566
2.49878
2.43618
2.37792
2.32362
2.27289
2.22533
2.18057
2.13824
2.09804
2.05967
2.02287
1.98741
1.95308
1.91969
1.88708
1.85509
1.82359
1.79246
1.76158
1.73084
1.70014
1.66938
1.63847
1.60731
1.5758
1.54386
1.51136
1.47823
1.44436
1.40965
1.37406
1.33755
1.30016
1.26208
1.22362
1.18537
1.14818
1.11324
2.98097
3.04208
3.06142
3.04551
3.0082
2.95594
2.89377
2.82615
2.75646
2.687
2.6193
2.55426
2.49235
2.43375
2.37843
2.32627
2.27703
2.23048
2.18636
2.1444
2.10435
2.06598
2.02908
1.99343
1.95887
1.92522
1.89233
1.86006
1.82829
1.7969
1.76578
1.73482
1.70394
1.67304
1.64203
1.61082
1.57933
1.54749
1.51521
1.48242
1.44906
1.41509
1.38051
1.34536
1.30974
1.2739
1.23818
1.20311
1.16942
1.13799
2.87615
2.92827
2.94895
2.94212
2.91745
2.87922
2.83105
2.77643
2.71823
2.65857
2.59898
2.54052
2.48384
2.42932
2.37714
2.32734
2.27985
2.23455
2.19129
2.1499
2.11019
2.07199
2.03513
1.99943
1.96475
1.93094
1.89787
1.86541
1.83344
1.80187
1.77058
1.73949
1.7085
1.67754
1.64652
1.61537
1.58401
1.55239
1.52045
1.48814
1.45543
1.42233
1.38886
1.35511
1.32122
1.28745
1.25414
1.22175
1.19086
1.16213
2.79237
2.83706
2.85747
2.85613
2.84004
2.81201
2.77454
2.73032
2.68168
2.63048
2.57816
2.52577
2.47408
2.42358
2.37458
2.32726
2.28166
2.23778
2.19556
2.1549
2.11568
2.07779
2.04109
2.00545
1.97075
1.93688
1.9037
1.87112
1.83904
1.80735
1.77597
1.74481
1.7138
1.68285
1.6519
1.62089
1.58976
1.55846
1.52695
1.49521
1.46324
1.43106
1.39873
1.36636
1.33411
1.30222
1.271
1.24085
1.21223
1.18563
2.72443
2.76305
2.78247
2.78443
2.7742
2.75358
2.72429
2.68835
2.64759
2.6036
2.55766
2.51078
2.46373
2.41707
2.37121
2.32638
2.28275
2.24039
2.19932
2.15951
2.1209
2.08342
2.04699
2.01151
1.97688
1.94301
1.90981
1.87719
1.84505
1.81332
1.78191
1.75074
1.71976
1.6889
1.65809
1.62729
1.59645
1.56554
1.53453
1.50343
1.47224
1.441
1.4098
1.37875
1.348
1.31779
1.28839
1.26012
1.23335
1.20847
2.66875
2.70244
2.72058
2.72452
2.71831
2.7031
2.68007
2.65068
2.61639
2.57848
2.53808
2.4961
2.4533
2.41024
2.36736
2.32499
2.28334
2.24255
2.20269
2.16381
2.12589
2.08892
2.05283
2.01759
1.98311
1.94932
1.91617
1.88356
1.85142
1.8197
1.78832
1.75721
1.72632
1.69559
1.66498
1.63445
1.60395
1.57348
1.54302
1.51258
1.48218
1.45188
1.42176
1.39194
1.36257
1.33384
1.30601
1.27933
1.2541
1.2306
2.62283
2.65248
2.66931
2.67438
2.67095
2.65972
2.64147
2.61727
2.58825
2.55545
2.51981
2.48215
2.44316
2.4034
2.36334
2.32332
2.2836
2.24437
2.20576
2.16785
2.13069
2.09428
2.05861
2.02366
1.98939
1.95575
1.92269
1.89016
1.85809
1.82642
1.79512
1.76411
1.73336
1.70282
1.67246
1.64223
1.61212
1.58212
1.55222
1.52245
1.49284
1.46344
1.43434
1.40566
1.37753
1.35012
1.32364
1.2983
1.27435
1.252
2.58483
2.61117
2.62675
2.63244
2.63093
2.62265
2.60806
2.58798
2.56324
2.53469
2.5031
2.46919
2.43359
2.39683
2.35936
2.32155
2.28367
2.24597
2.2086
2.17168
2.1353
2.09949
2.06429
2.02968
1.99567
1.96223
1.92932
1.89691
1.86494
1.83339
1.80221
1.77135
1.74078
1.71047
1.68038
1.65049
1.62079
1.59128
1.56196
1.53285
1.504
1.47546
1.44732
1.41967
1.39265
1.3664
1.34109
1.31691
1.29403
1.27263
2.55339
2.57702
2.59146
2.59745
2.59727
2.59117
2.57941
2.56258
2.54131
2.51627
2.48811
2.45743
2.4248
2.39071
2.35559
2.31981
2.28367
2.24742
2.21125
2.17531
2.13971
2.10453
2.06982
2.0356
2.00189
1.96868
1.93596
1.90371
1.8719
1.8405
1.80948
1.7788
1.74845
1.71839
1.68861
1.65909
1.62981
1.6008
1.57205
1.54359
1.51547
1.48774
1.46048
1.43378
1.40775
1.38252
1.35823
1.33503
1.31306
1.29246
2.52748
2.54889
2.56231
2.56842
2.56917
2.56468
2.5551
2.54083
2.52237
2.50022
2.47492
2.447
2.41693
2.38519
2.35217
2.31823
2.28368
2.24879
2.21375
2.17876
2.14393
2.10937
2.07516
2.04135
2.00797
1.97502
1.94253
1.91048
1.87885
1.84764
1.81681
1.78635
1.75625
1.72647
1.69702
1.66787
1.63904
1.61051
1.58233
1.5545
1.52707
1.5001
1.47365
1.4478
1.42266
1.39833
1.37492
1.35256
1.33137
1.31145
2.50631
2.5259
2.53844
2.54455
2.54595
2.54267
2.53476
2.52251
2.50629
2.4865
2.46358
2.43796
2.41009
2.38037
2.34919
2.31689
2.28377
2.25011
2.21613
2.18202
2.14793
2.11398
2.08027
2.04687
2.01383
1.98118
1.94893
1.9171
1.88569
1.85469
1.82409
1.79388
1.76404
1.73457
1.70546
1.67671
1.64831
1.62028
1.59264
1.56541
1.53864
1.51237
1.48666
1.4616
1.43725
1.41371
1.39107
1.36945
1.34891
1.32956
2.48927
2.50738
2.51918
2.52523
2.52707
2.52469
2.51806
2.50739
2.49295
2.47506
2.45407
2.43037
2.40434
2.37634
2.34673
2.31585
2.284
2.25144
2.21841
2.1851
2.1517
2.11833
2.0851
2.05211
2.01941
1.98706
1.95508
1.9235
1.89233
1.86157
1.83122
1.80127
1.77173
1.74258
1.71382
1.68546
1.6575
1.62996
1.60285
1.57619
1.55004
1.52442
1.4994
1.47503
1.45139
1.42856
1.4066
1.3856
1.36564
1.34678
2.47588
2.49282
2.50401
2.50998
2.51212
2.5104
2.50474
2.49528
2.48223
2.46584
2.44641
2.42426
2.39972
2.37315
2.34486
2.31518
2.2844
2.25279
2.22059
2.18801
2.15522
2.12238
2.08961
2.05701
2.02465
1.99261
1.96091
1.92959
1.89867
1.86817
1.83808
1.80842
1.77918
1.75037
1.72198
1.69402
1.6665
1.63942
1.61282
1.58672
1.56114
1.53613
1.51173
1.48801
1.465
1.44279
1.42143
1.40099
1.38152
1.36308
2.46579
2.48182
2.49253
2.49841
2.50076
2.49951
2.49456
2.48601
2.47402
2.45878
2.44055
2.41962
2.39627
2.37083
2.34361
2.31491
2.28502
2.2542
2.2227
2.19074
2.15849
2.12612
2.09377
2.06153
2.0295
1.99775
1.96633
1.93529
1.90464
1.87441
1.8446
1.81524
1.78632
1.75785
1.72983
1.70227
1.67518
1.64857
1.62246
1.59688
1.57184
1.5474
1.52358
1.50043
1.478
1.45634
1.43551
1.41555
1.39651
1.37843
2.45873
2.4741
2.48444
2.49024
2.49272
2.4918
2.48736
2.47946
2.46823
2.45383
2.43649
2.41645
2.394
2.36942
2.34301
2.31506
2.28587
2.25568
2.22475
2.19329
2.16149
2.12953
2.09753
2.06563
2.03391
2.00245
1.97131
1.94053
1.91016
1.88021
1.8507
1.82164
1.79305
1.76493
1.73729
1.71013
1.68346
1.6573
1.63167
1.60658
1.58206
1.55813
1.53484
1.51222
1.49031
1.46915
1.44878
1.42925
1.41059
1.39283
2.45451
2.46944
2.47954
2.48527
2.48783
2.48711
2.483
2.47552
2.46479
2.45095
2.4342
2.41476
2.39291
2.36892
2.34308
2.31567
2.28697
2.25724
2.22673
2.19566
2.16422
2.13258
2.1009
2.06928
2.03784
2.00665
1.97577
1.94527
1.91517
1.88551
1.8563
1.82757
1.79931
1.77155
1.74428
1.71752
1.69127
1.66555
1.64037
1.61575
1.59171
1.56827
1.54547
1.52333
1.50189
1.48118
1.46123
1.44207
1.42374
1.40625
2.45301
2.4677
2.47767
2.48337
2.48596
2.48534
2.48138
2.47412
2.46364
2.45009
2.43365
2.41454
2.39302
2.36936
2.34384
2.31674
2.28833
2.25889
2.22866
2.19785
2.16667
2.13528
2.10383
2.07246
2.04126
2.01032
1.9797
1.94946
1.91965
1.89027
1.86137
1.83296
1.80504
1.77763
1.75074
1.72437
1.69854
1.67324
1.6485
1.62433
1.60074
1.57776
1.55541
1.53372
1.5127
1.49239
1.47281
1.45399
1.43595
1.4187
2.45415
2.46882
2.47877
2.48446
2.48705
2.48643
2.48248
2.47523
2.46477
2.45125
2.43485
2.41579
2.39432
2.37073
2.34528
2.31827
2.28997
2.26064
2.23053
2.19986
2.16882
2.1376
2.10633
2.07515
2.04416
2.01345
1.98307
1.95309
1.92354
1.89446
1.86587
1.83778
1.8102
1.78315
1.75663
1.73065
1.70522
1.68033
1.65601
1.63227
1.60911
1.58656
1.56463
1.54334
1.52271
1.50276
1.48352
1.465
1.44721
1.43017
2.45794
2.47279
2.48284
2.48855
2.49109
2.49037
2.48628
2.47884
2.46817
2.45442
2.43779
2.4185
2.39682
2.37303
2.34742
2.32027
2.29187
2.26248
2.23234
2.20168
2.17069
2.13955
2.10839
2.07735
2.04653
2.01601
1.98586
1.95612
1.92684
1.89805
1.86976
1.842
1.81476
1.78807
1.76192
1.73632
1.71128
1.68679
1.66288
1.63954
1.61678
1.59463
1.57309
1.55217
1.5319
1.51228
1.49334
1.47508
1.45753
1.44067
2.46443
2.47967
2.48993
2.49568
2.49814
2.49722
2.49282
2.48499
2.47387
2.45962
2.44247
2.42267
2.4005
2.37625
2.35023
2.32273
2.29403
2.2644
2.23409
2.20331
2.17227
2.14112
2.11001
2.07906
2.04837
2.01802
1.98807
1.95856
1.92954
1.90103
1.87305
1.84561
1.81871
1.79237
1.76659
1.74136
1.7167
1.6926
1.66907
1.64612
1.62375
1.60196
1.58078
1.56021
1.54026
1.52094
1.50227
1.48425
1.4669
1.45021
2.47374
2.4896
2.50019
2.506
2.50832
2.50707
2.50218
2.49373
2.48189
2.46686
2.44891
2.4283
2.40536
2.38039
2.35371
2.32563
2.29643
2.2664
2.23576
2.20475
2.17354
2.1423
2.11117
2.08027
2.04967
2.01946
1.9897
1.96041
1.93164
1.90341
1.87573
1.84861
1.82205
1.79605
1.77063
1.74577
1.72147
1.69774
1.67459
1.652
1.62998
1.60855
1.5877
1.56745
1.54779
1.52875
1.51032
1.49252
1.47534
1.45879
2.48604
2.50276
2.5138
2.51968
2.52179
2.52008
2.51449
2.50516
2.49231
2.4762
2.45712
2.4354
2.41139
2.38542
2.35783
2.32894
2.29906
2.26844
2.23734
2.20597
2.17451
2.14311
2.1119
2.08099
2.05045
2.02036
1.99076
1.96168
1.93316
1.90519
1.87781
1.851
1.82477
1.79912
1.77404
1.74953
1.7256
1.70222
1.67942
1.65717
1.6355
1.61439
1.59385
1.57389
1.5545
1.5357
1.51749
1.49988
1.48286
1.46644
2.5016
2.51945
2.53107
2.53701
2.53881
2.53644
2.52991
2.5194
2.50521
2.48767
2.46712
2.44396
2.41856
2.3913
2.36255
2.33264
2.30187
2.27051
2.23881
2.20697
2.17516
2.14353
2.11219
2.08123
2.05072
2.02073
1.99127
1.96239
1.9341
1.9064
1.8793
1.8528
1.8269
1.80158
1.77684
1.75267
1.72908
1.70605
1.68357
1.66166
1.64029
1.61949
1.59923
1.57954
1.5604
1.54182
1.52381
1.50636
1.48948
1.47317
2.52077
2.54004
2.55237
2.55836
2.55971
2.55645
2.54866
2.53662
2.5207
2.50133
2.47893
2.45395
2.42684
2.398
2.36782
2.33666
2.30481
2.27256
2.24014
2.20773
2.1755
2.14357
2.11204
2.081
2.0505
2.02058
1.99126
1.96257
1.9345
1.90706
1.88024
1.85404
1.82845
1.80345
1.77904
1.75521
1.73194
1.70923
1.68707
1.66546
1.64439
1.62386
1.60387
1.58442
1.5655
1.54713
1.52929
1.51199
1.49523
1.47901
2.54401
2.56505
2.57823
2.5842
2.5849
2.58045
2.57101
2.55699
2.53889
2.51723
2.49255
2.46536
2.43618
2.40544
2.37358
2.34094
2.30784
2.27455
2.24128
2.20822
2.17549
2.14321
2.11147
2.08032
2.0498
2.01994
1.99075
1.96223
1.93438
1.90719
1.88065
1.85474
1.82945
1.80476
1.78067
1.75715
1.73419
1.71179
1.68992
1.6686
1.6478
1.62753
1.60778
1.58854
1.56983
1.55163
1.53395
1.51678
1.50013
1.48399
2.57192
2.59514
2.6093
2.61514
2.61491
2.60886
2.59727
2.58073
2.55989
2.53542
2.50796
2.47813
2.44649
2.41354
2.37972
2.3454
2.31088
2.27641
2.2422
2.2084
2.17512
2.14246
2.11047
2.07919
2.04864
2.01883
1.98976
1.96141
1.93377
1.90682
1.88055
1.85492
1.82993
1.80554
1.78175
1.75853
1.73587
1.71375
1.69216
1.6711
1.65055
1.63051
1.61098
1.59195
1.57341
1.55537
1.53782
1.52077
1.5042
1.48813
2.60527
2.63116
2.64643
2.65197
2.6504
2.64219
2.62781
2.60807
2.58382
2.55591
2.52512
2.49216
2.45766
2.42217
2.38614
2.34992
2.31382
2.27807
2.24283
2.20824
2.17438
2.1413
2.10905
2.07763
2.04704
2.01728
1.98832
1.96014
1.93271
1.906
1.87998
1.85463
1.82992
1.80582
1.78231
1.75937
1.73699
1.71514
1.69381
1.67299
1.65267
1.63284
1.6135
1.59464
1.57627
1.55836
1.54093
1.52398
1.50749
1.49146
2.64509
2.67424
2.69075
2.69565
2.69217
2.68104
2.66303
2.63923
2.61076
2.57868
2.54392
2.50731
2.46954
2.43117
2.39266
2.35437
2.31656
2.27942
2.2431
2.20767
2.1732
2.13971
2.10719
2.07563
2.04501
2.0153
1.98645
1.95844
1.93121
1.90473
1.87897
1.85389
1.82945
1.80562
1.78239
1.75971
1.73758
1.71598
1.69488
1.67428
1.65417
1.63454
1.61537
1.59667
1.57843
1.56065
1.54332
1.52644
1.51001
1.49403
2.69273
2.72587
2.74367
2.74743
2.74119
2.72611
2.70335
2.67441
2.64075
2.60364
2.56421
2.52338
2.48188
2.44031
2.3991
2.35856
2.31893
2.28035
2.24291
2.20664
2.17156
2.13765
2.10487
2.07319
2.04255
2.01289
1.98417
1.95633
1.92931
1.90306
1.87755
1.85272
1.82854
1.80498
1.78199
1.75957
1.73768
1.7163
1.69542
1.67502
1.6551
1.63563
1.61662
1.59806
1.57993
1.56225
1.545
1.52819
1.51181
1.49585
2.75
2.78805
2.8071
2.80889
2.79865
2.77817
2.74921
2.71378
2.67371
2.63059
2.5857
2.54004
2.49439
2.4493
2.40518
2.36228
2.32077
2.28071
2.24214
2.20505
2.16938
2.13508
2.10208
2.07029
2.03965
2.01008
1.98149
1.95382
1.92701
1.901
1.87573
1.85115
1.82722
1.8039
1.78116
1.75897
1.7373
1.71613
1.69545
1.67523
1.65547
1.63615
1.61728
1.59883
1.58081
1.56321
1.54603
1.52926
1.51291
1.49698
2.81942
2.8635
2.88353
2.88202
2.86593
2.83808
2.80099
2.75734
2.70945
2.65919
2.60797
2.55688
2.50665
2.45778
2.41059
2.36526
2.32183
2.28032
2.24067
2.20279
2.16659
2.13195
2.09876
2.06692
2.03631
2.00684
1.97841
1.95093
1.92434
1.89856
1.87353
1.8492
1.82551
1.80243
1.77992
1.75794
1.73647
1.7155
1.69499
1.67493
1.65532
1.63613
1.61737
1.59902
1.58108
1.56355
1.54642
1.52969
1.51337
1.49744
2.90452
2.95601
2.9763
2.9693
2.94467
2.90666
2.85891
2.80491
2.74752
2.68884
2.63042
2.57329
2.51811
2.46527
2.41493
2.36715
2.32186
2.27896
2.2383
2.19973
2.16307
2.12817
2.09487
2.06302
2.03249
2.00316
1.97491
1.94765
1.92129
1.89575
1.87096
1.84687
1.82342
1.80057
1.77827
1.7565
1.73522
1.71442
1.69407
1.67415
1.65467
1.63559
1.61693
1.59866
1.58079
1.56331
1.54622
1.52952
1.5132
1.49727
3.01051
3.07097
3.08992
3.07387
3.03661
2.98462
2.92292
2.85596
2.78711
2.71868
2.65217
2.58848
2.52809
2.47117
2.4177
2.36756
2.32053
2.27637
2.23485
2.19571
2.15872
2.12366
2.09032
2.05854
2.02815
1.99901
1.97098
1.94396
1.91785
1.89256
1.86803
1.84418
1.82096
1.79833
1.77624
1.75465
1.73355
1.71291
1.6927
1.67292
1.65355
1.63457
1.61598
1.59778
1.57996
1.56252
1.54546
1.52876
1.51245
1.4965
3.14537
3.21626
3.23046
3.19945
3.14354
3.07227
2.99239
2.90936
2.82694
2.7474
2.67203
2.60141
2.53569
2.47476
2.41831
2.36601
2.31745
2.27226
2.23007
2.19055
2.15337
2.11828
2.08504
2.05342
2.02324
1.99434
1.96658
1.93984
1.91401
1.88899
1.86472
1.84112
1.81813
1.79572
1.77383
1.75243
1.73149
1.711
1.69092
1.67125
1.65198
1.63308
1.61456
1.59642
1.57863
1.56122
1.54416
1.52747
1.51115
1.49518
3.32203
3.40362
3.40605
3.35037
3.26685
3.16911
3.0658
2.96318
2.86499
2.77315
2.68838
2.61072
2.53983
2.47516
2.41608
2.36197
2.31222
2.2663
2.22371
2.18403
2.14688
2.11193
2.0789
2.04756
2.01769
1.98912
1.96168
1.93526
1.90974
1.88502
1.86103
1.83769
1.81494
1.79274
1.77105
1.74983
1.72905
1.7087
1.68874
1.66918
1.64998
1.63116
1.6127
1.59459
1.57683
1.55943
1.54238
1.52568
1.50933
1.49334
3.56275
3.65086
3.6272
3.53092
3.40672
3.27307
3.14011
3.01418
2.89831
2.79339
2.69915
2.61478
2.53921
2.47137
2.41022
2.35483
2.30436
2.25812
2.21548
2.17594
2.13905
2.10445
2.07181
2.04088
2.01143
1.98327
1.95623
1.93019
1.90502
1.88063
1.85694
1.83387
1.81138
1.78941
1.76792
1.74687
1.72625
1.70603
1.68618
1.66671
1.64759
1.62883
1.61041
1.59233
1.57459
1.55719
1.54013
1.52342
1.50704
1.49101
3.90806
3.98518
3.9064
3.74361
3.56032
3.37903
3.20976
3.0573
2.92265
2.80473
2.70172
2.61156
2.53232
2.46226
2.39989
2.34394
2.29338
2.24734
2.20509
2.16604
2.12972
2.0957
2.06365
2.03329
2.00438
1.97673
1.95018
1.92458
1.89981
1.8758
1.85244
1.82967
1.80744
1.78571
1.76442
1.74356
1.72309
1.70299
1.68326
1.66387
1.64483
1.62611
1.60773
1.58967
1.57193
1.55453
1.53746
1.52071
1.5043
1.48823
4.43184
4.44605
4.25572
3.9862
3.7193
3.47721
3.26581
3.08523
2.93234
2.80296
2.69299
2.59885
2.51755
2.44666
2.38422
2.32869
2.27882
2.23361
2.19226
2.15413
2.1187
2.08554
2.0543
2.02469
1.99647
1.96946
1.94348
1.9184
1.8941
1.8705
1.84751
1.82507
1.80313
1.78165
1.76058
1.7399
1.71958
1.69962
1.67999
1.66069
1.6417
1.62303
1.60467
1.58663
1.56889
1.55147
1.53437
1.5176
1.50115
1.48502
5.2669
5.08481
4.6815
4.24891
3.86894
3.55325
3.29662
3.08935
2.92137
2.78398
2.67026
2.57487
2.49376
2.42384
2.36277
2.30879
2.2605
2.21683
2.17695
2.14018
2.10601
2.07399
2.04378
2.01511
1.98774
1.96147
1.93616
1.91168
1.88791
1.86477
1.84219
1.82011
1.79848
1.77726
1.75642
1.73594
1.71578
1.69595
1.67642
1.6572
1.63827
1.61964
1.6013
1.58326
1.56552
1.54808
1.53095
1.51413
1.49763
1.48145
6.7085
5.9674
5.15916
4.49498
3.97648
3.58177
3.28438
3.05801
2.88239
2.74329
2.63083
2.53804
2.46002
2.39328
2.33526
2.28409
2.23836
2.19699
2.15916
2.12423
2.09167
2.06108
2.03215
2.00459
1.97821
1.95281
1.92827
1.90446
1.88128
1.85866
1.83653
1.81484
1.79354
1.7726
1.752
1.73171
1.71172
1.69202
1.6726
1.65345
1.63458
1.61598
1.59766
1.57962
1.56186
1.54439
1.52722
1.51035
1.49379
1.47755
9.52728
7.15176
5.52338
4.56626
3.92844
3.48767
3.1808
2.9601
2.79493
2.66694
2.56474
2.48095
2.41063
2.35042
2.29795
2.25149
2.20977
2.17183
2.13695
2.10455
2.07418
2.0455
2.01822
1.9921
1.96696
1.94266
1.91906
1.89607
1.87361
1.8516
1.83
1.80877
1.78786
1.76725
1.74692
1.72686
1.70705
1.6875
1.66819
1.64912
1.6303
1.61173
1.59342
1.57536
1.55758
1.54007
1.52285
1.50592
1.48929
1.47297
14.2955
8.34783
5.42962
4.22606
3.58768
3.19833
2.94794
2.77503
2.647
2.54727
2.46663
2.39949
2.34226
2.29248
2.24844
2.20889
2.17289
2.13973
2.10888
2.07989
2.05244
2.02625
2.0011
1.97683
1.95328
1.93035
1.90794
1.88598
1.8644
1.84315
1.8222
1.80152
1.78108
1.76086
1.74086
1.72106
1.70147
1.68208
1.6629
1.64392
1.62515
1.60661
1.58829
1.57022
1.5524
1.53483
1.51754
1.50053
1.48381
1.4674
1.01267
1.01222
1.01135
1.01028
1.00922
1.00832
1.00767
1.00734
1.00736
1.00776
1.00856
1.00976
1.01135
1.01332
1.01566
1.01835
1.02137
1.0247
1.02832
1.0322
1.03633
1.04066
1.04519
1.04989
1.05473
1.05969
1.06475
1.06989
1.07508
1.0803
1.08554
1.09077
1.09599
1.10116
1.10628
1.11132
1.11629
1.12115
1.1259
1.13054
1.13504
1.13939
1.1436
1.14765
1.15153
1.15524
1.15877
1.16211
1.16527
1.16824
1.17101
1.17359
1.17597
1.17814
1.18012
1.1819
1.18348
1.18486
1.18604
1.18702
1.18781
1.18841
1.18882
1.18904
1.18907
1.18893
1.18861
1.18812
1.18746
1.18664
1.18566
1.18452
1.18322
1.18179
1.18021
1.17849
1.17664
1.17466
1.17255
1.17033
1.168
1.16555
1.163
1.16035
1.1576
1.15477
1.15184
1.14883
1.14575
1.14259
1.13936
1.13606
1.1327
1.12928
1.12581
1.12228
1.11871
1.11509
1.11143
1.10773
1.104
1.10023
1.09643
1.09261
1.08876
1.08489
1.081
1.07709
1.07317
1.06923
1.06529
1.06133
1.05736
1.05339
1.04942
1.04544
1.04146
1.03748
1.03351
1.02953
1.02556
1.0216
1.01763
1.01368
1.00974
1.0058
1.00187
0.997953
0.994045
0.990149
0.986264
0.982392
0.978532
0.974685
0.970852
0.967033
0.963227
0.959436
0.95566
0.951898
0.948151
0.944419
0.940702
0.937001
0.933314
0.929643
0.925988
0.922347
0.918722
0.915112
0.911517
0.907937
0.904372
0.900821
0.897286
0.893765
0.890258
0.886766
0.883287
0.879823
0.876372
0.872935
0.869512
0.866101
0.862703
0.859318
0.855946
0.852586
0.849238
0.845902
0.842577
0.839264
0.835961
0.83267
0.82939
0.82612
0.82286
0.81961
0.81637
0.81314
0.809919
0.806707
0.803503
0.800309
0.797123
0.793945
0.790775
0.787613
0.784458
0.781311
0.778171
0.775037
0.771911
0.768791
0.765677
0.76257
0.759468
0.756373
0.753283
0.750198
0.747118
0.744044
0.740974
0.737909
0.734849
0.731793
0.728742
0.725694
0.722651
0.719611
0.716575
0.713542
0.710513
0.707487
0.704464
0.701444
0.698427
0.695412
0.692401
0.689392
0.686385
0.68338
0.680378
0.677378
0.67438
0.671383
0.668389
0.665396
0.662405
0.659415
0.656427
0.65344
0.650454
0.64747
0.644487
0.641505
0.638523
0.635543
0.632564
0.629585
0.626608
0.62363
0.620654
0.617678
0.614703
0.611728
0.608754
0.60578
0.602806
0.599833
0.59686
0.593887
0.590914
0.587942
0.584969
0.581997
0.579025
0.576053
0.573081
0.570108
0.567136
0.564164
0.561191
0.558219
0.555246
0.552273
0.5493
0.546327
0.543354
0.54038
0.537406
0.534432
0.531458
0.528483
0.525508
0.522533
0.519557
0.516581
0.513605
0.510629
0.507652
0.504675
0.501697
0.498719
0.495741
0.492762
0.489783
0.486804
0.483824
0.480844
0.477864
0.474883
0.471902
0.46892
0.465938
0.462956
0.459974
0.456991
0.454007
0.451024
0.44804
0.445055
0.44207
0.439085
0.4361
0.433114
0.430128
0.427141
0.424154
0.421167
0.41818
0.415192
0.412204
0.409215
0.406227
0.403238
0.400248
0.397258
0.394269
0.391278
0.388288
0.385297
0.382306
0.379315
0.376323
0.373331
0.370339
0.367347
0.364355
0.361362
0.358369
0.355375
0.352382
0.349388
0.346394
0.3434
0.340406
0.337411
0.334417
0.331422
0.328427
0.325431
0.322436
0.31944
0.316445
0.313449
0.310452
0.307456
0.30446
0.301463
0.298467
0.29547
0.292473
0.289476
0.286479
0.283481
0.280484
0.277486
0.274488
0.27149
0.268492
0.265494
0.262496
0.259498
0.2565
0.253501
0.250503
0.247504
0.244506
0.241507
0.238508
0.23551
0.232511
0.229512
0.226513
0.223514
0.220514
0.217515
0.214516
0.211516
0.208517
0.205517
0.202518
0.199518
0.196519
0.193519
0.190519
0.18752
0.18452
0.18152
0.17852
0.17552
0.17252
0.16952
0.166521
0.163521
0.160521
0.157521
0.15452
0.15152
0.14852
0.14552
0.14252
0.13952
0.13652
0.133519
0.130519
0.127519
0.124519
0.121519
0.118518
0.115518
0.112518
0.109518
0.106517
0.103517
0.100517
0.0975163
0.0945159
0.0915156
0.0885152
0.0855148
0.0825145
0.0795142
0.0765139
0.0735136
0.0705133
0.0675131
0.0645128
0.0615125
0.0585121
0.0555118
0.0525114
0.049511
0.0465106
0.0435101
0.0405097
0.0375093
0.0345089
0.0315085
0.0285082
0.0255078
0.0225075
0.0195071
0.0165066
0.0135061
0.0105055
0.0075048
0.00450389
0.00150204
1.01313
1.01267
1.01198
1.01119
1.01042
1.00978
1.00935
1.00919
1.00935
1.00984
1.01068
1.01187
1.01342
1.01533
1.01757
1.02014
1.02302
1.02618
1.02963
1.03332
1.03724
1.04137
1.04568
1.05016
1.05478
1.05952
1.06436
1.06928
1.07426
1.07927
1.08431
1.08934
1.09436
1.09935
1.10429
1.10917
1.11397
1.11869
1.1233
1.1278
1.13217
1.13641
1.14051
1.14446
1.14825
1.15188
1.15534
1.15862
1.16172
1.16464
1.16737
1.16992
1.17227
1.17443
1.17639
1.17817
1.17974
1.18113
1.18232
1.18332
1.18413
1.18475
1.18519
1.18545
1.18552
1.18542
1.18515
1.18471
1.1841
1.18333
1.1824
1.18131
1.18008
1.17871
1.17719
1.17553
1.17375
1.17184
1.1698
1.16765
1.16538
1.163
1.16052
1.15794
1.15526
1.15249
1.14963
1.1467
1.14368
1.14058
1.13742
1.13419
1.13089
1.12754
1.12413
1.12066
1.11715
1.11359
1.10999
1.10635
1.10267
1.09896
1.09522
1.09145
1.08765
1.08383
1.07999
1.07613
1.07226
1.06837
1.06446
1.06055
1.05663
1.0527
1.04876
1.04482
1.04088
1.03694
1.03299
1.02905
1.02511
1.02118
1.01725
1.01333
1.00941
1.0055
1.00159
0.997702
0.993818
0.989944
0.986082
0.98223
0.97839
0.974563
0.970748
0.966946
0.963157
0.959382
0.955621
0.951873
0.94814
0.944421
0.940717
0.937027
0.933351
0.929691
0.926045
0.922413
0.918797
0.915195
0.911607
0.908034
0.904476
0.900932
0.897402
0.893886
0.890384
0.886897
0.883422
0.879962
0.876515
0.87308
0.869659
0.866251
0.862856
0.859473
0.856102
0.852743
0.849396
0.846061
0.842737
0.839424
0.836122
0.832831
0.82955
0.82628
0.82302
0.819769
0.816529
0.813297
0.810075
0.806862
0.803658
0.800462
0.797274
0.794095
0.790923
0.78776
0.784603
0.781454
0.778312
0.775177
0.772049
0.768927
0.765811
0.762701
0.759598
0.7565
0.753408
0.750321
0.747239
0.744162
0.74109
0.738023
0.734961
0.731903
0.728849
0.725799
0.722753
0.719711
0.716673
0.713638
0.710606
0.707578
0.704553
0.701531
0.698512
0.695495
0.692481
0.68947
0.686461
0.683455
0.68045
0.677448
0.674448
0.67145
0.668453
0.665459
0.662465
0.659474
0.656484
0.653495
0.650508
0.647522
0.644537
0.641553
0.63857
0.635589
0.632608
0.629628
0.626648
0.62367
0.620692
0.617715
0.614738
0.611762
0.608786
0.605811
0.602836
0.599862
0.596887
0.593913
0.59094
0.587966
0.584993
0.582019
0.579046
0.576073
0.5731
0.570127
0.567154
0.56418
0.561207
0.558234
0.55526
0.552287
0.549313
0.546339
0.543365
0.540391
0.537416
0.534441
0.531466
0.528491
0.525515
0.52254
0.519564
0.516587
0.51361
0.510633
0.507656
0.504679
0.501701
0.498722
0.495744
0.492765
0.489785
0.486806
0.483826
0.480845
0.477864
0.474883
0.471902
0.46892
0.465938
0.462956
0.459973
0.45699
0.454006
0.451022
0.448038
0.445053
0.442068
0.439083
0.436098
0.433112
0.430125
0.427139
0.424152
0.421164
0.418177
0.415189
0.412201
0.409212
0.406223
0.403234
0.400245
0.397255
0.394265
0.391275
0.388284
0.385294
0.382303
0.379311
0.37632
0.373328
0.370336
0.367343
0.364351
0.361358
0.358365
0.355372
0.352378
0.349385
0.346391
0.343397
0.340402
0.337408
0.334413
0.331418
0.328423
0.325428
0.322432
0.319437
0.316441
0.313445
0.310449
0.307453
0.304457
0.30146
0.298463
0.295467
0.29247
0.289473
0.286476
0.283478
0.280481
0.277483
0.274485
0.271488
0.26849
0.265492
0.262494
0.259495
0.256497
0.253499
0.2505
0.247502
0.244503
0.241505
0.238506
0.235507
0.232509
0.22951
0.226511
0.223511
0.220512
0.217513
0.214514
0.211514
0.208515
0.205516
0.202516
0.199517
0.196517
0.193517
0.190518
0.187518
0.184518
0.181519
0.178519
0.175519
0.172519
0.169519
0.166519
0.163519
0.160519
0.157519
0.154519
0.151519
0.148519
0.145519
0.142519
0.139519
0.136519
0.133518
0.130518
0.127518
0.124518
0.121518
0.118518
0.115517
0.112517
0.109517
0.106517
0.103516
0.100516
0.0975156
0.0945153
0.091515
0.0885146
0.0855143
0.082514
0.0795137
0.0765134
0.0735132
0.0705129
0.0675126
0.0645123
0.0615121
0.0585117
0.0555114
0.052511
0.0495106
0.0465102
0.0435098
0.0405093
0.0375089
0.0345085
0.0315082
0.0285078
0.0255074
0.022507
0.0195066
0.0165061
0.0135056
0.0105049
0.00750413
0.00450331
0.0015018
1.014
1.01336
1.01267
1.01198
1.01134
1.01085
1.01055
1.01051
1.01075
1.01129
1.01216
1.01336
1.01488
1.01674
1.01891
1.02138
1.02415
1.0272
1.03051
1.03405
1.03782
1.04179
1.04594
1.05025
1.0547
1.05927
1.06394
1.06868
1.07349
1.07834
1.08321
1.08809
1.09296
1.0978
1.10261
1.10735
1.11202
1.11662
1.12111
1.12551
1.12978
1.13393
1.13794
1.14181
1.14553
1.1491
1.15249
1.15573
1.15878
1.16166
1.16436
1.16688
1.16921
1.17135
1.17331
1.17507
1.17665
1.17804
1.17924
1.18025
1.18108
1.18172
1.18218
1.18246
1.18257
1.1825
1.18226
1.18186
1.18129
1.18056
1.17968
1.17864
1.17746
1.17613
1.17467
1.17306
1.17133
1.16947
1.16749
1.16539
1.16318
1.16086
1.15843
1.15591
1.15329
1.15057
1.14777
1.14489
1.14192
1.13889
1.13578
1.1326
1.12936
1.12606
1.1227
1.11929
1.11582
1.11231
1.10876
1.10517
1.10154
1.09787
1.09418
1.09045
1.0867
1.08292
1.07912
1.0753
1.07146
1.06761
1.06375
1.05987
1.05598
1.05209
1.04818
1.04428
1.04037
1.03645
1.03254
1.02863
1.02472
1.02081
1.0169
1.013
1.00911
1.00522
1.00134
0.997469
0.993606
0.989752
0.985908
0.982074
0.978252
0.974441
0.970642
0.966855
0.963081
0.959319
0.955571
0.951836
0.948115
0.944407
0.940713
0.937034
0.933368
0.929716
0.926079
0.922456
0.918847
0.915252
0.911672
0.908105
0.904553
0.901014
0.897489
0.893978
0.890481
0.886997
0.883527
0.88007
0.876626
0.873195
0.869776
0.866371
0.862977
0.859596
0.856227
0.85287
0.849524
0.846189
0.842866
0.839554
0.836253
0.832962
0.829681
0.826411
0.823151
0.8199
0.816659
0.813427
0.810204
0.80699
0.803785
0.800588
0.7974
0.794219
0.791047
0.787882
0.784724
0.781573
0.77843
0.775293