/*--------------------------------*- C++ -*----------------------------------*\
| =========                 |                                                 |
| \\      /  F ield         | OpenFOAM: The Open Source CFD Toolbox           |
|  \\    /   O peration     | Version:  2306                                  |
|   \\  /    A nd           | Website:  www.openfoam.com                      |
|    \\/     M anipulation  |                                                 |
\*---------------------------------------------------------------------------*/
FoamFile
{
    version     2.0;
    format      ascii;
    arch        "LSB;label=32;scalar=64";
    class       volVectorField;
    location    "0.06";
    object      U;
}
// * * * * * * * * * * * * * * * * * * * * * * * * * * * * * * * * * * * * * //

dimensions      [0 1 -1 0 0 0 0];

internalField   nonuniform List<vector> 
47500
(
(0.708058 0.141126 0)
(0.605107 0.126852 0)
(0.442238 0.0756731 0)
(0.323206 0.0428886 0)
(0.25263 0.024908 0)
(0.207939 0.0151464 0)
(0.177262 0.00977736 0)
(0.155196 0.00671732 0)
(0.138702 0.00487286 0)
(0.125952 0.00368886 0)
(0.115837 0.00288289 0)
(0.107654 0.00230651 0)
(0.100935 0.00187773 0)
(0.0953546 0.00154874 0)
(0.0906774 0.00129005 0)
(0.0867305 0.00108259 0)
(0.0833826 0.000913491 0)
(0.0805321 0.000773745 0)
(0.0780995 0.000656878 0)
(0.0760212 0.000558118 0)
(0.0742461 0.000473882 0)
(0.0727325 0.000401419 0)
(0.0714462 0.000338587 0)
(0.0703587 0.000283694 0)
(0.0694466 0.00023538 0)
(0.0686901 0.000192534 0)
(0.0680729 0.000154242 0)
(0.0675811 0.00011973 0)
(0.0672035 8.83417e-05 0)
(0.0669307 5.95031e-05 0)
(0.0667553 3.27026e-05 0)
(0.0666715 7.47521e-06 0)
(0.066675 -1.66207e-05 0)
(0.0667635 -4.00181e-05 0)
(0.0669361 -6.31586e-05 0)
(0.0671937 -8.65222e-05 0)
(0.0675397 -0.00011066 0)
(0.0679801 -0.000136249 0)
(0.0685245 -0.000164193 0)
(0.0691877 -0.000195833 0)
(0.0699922 -0.000233449 0)
(0.0709731 -0.00028152 0)
(0.0721879 -0.000350169 0)
(0.0737382 -0.000464646 0)
(0.0758161 -0.000691616 0)
(0.0788039 -0.00121072 0)
(0.0835862 -0.00251481 0)
(0.092641 -0.00602995 0)
(0.111775 -0.0161257 0)
(0.147517 -0.0459501 0)
(0.990012 0.273751 0)
(0.981278 0.298006 0)
(0.863905 0.216088 0)
(0.734147 0.146997 0)
(0.628327 0.100191 0)
(0.545488 0.0697681 0)
(0.480676 0.0501566 0)
(0.429808 0.0373066 0)
(0.389482 0.0286116 0)
(0.357072 0.0225083 0)
(0.330672 0.018072 0)
(0.308911 0.0147466 0)
(0.290791 0.0121874 0)
(0.275575 0.0101737 0)
(0.26271 0.0085594 0)
(0.251774 0.00724467 0)
(0.242439 0.00615923 0)
(0.234448 0.00525246 0)
(0.227594 0.00448702 0)
(0.221713 0.00383486 0)
(0.216668 0.00327452 0)
(0.21235 0.0027893 0)
(0.208666 0.00236605 0)
(0.20554 0.0019942 0)
(0.202907 0.0016652 0)
(0.200714 0.00137197 0)
(0.198917 0.00110861 0)
(0.197476 0.000870063 0)
(0.196361 0.00065197 0)
(0.195547 0.000450447 0)
(0.195013 0.000261956 0)
(0.194745 8.31564e-05 0)
(0.19473 -8.92331e-05 0)
(0.194964 -0.000258597 0)
(0.195445 -0.000428625 0)
(0.19618 -0.000603586 0)
(0.197181 -0.00078875 0)
(0.198469 -0.000991023 0)
(0.200079 -0.00122004 0)
(0.202064 -0.00149011 0)
(0.204503 -0.00182387 0)
(0.207515 -0.00225956 0)
(0.211287 -0.00286633 0)
(0.216121 -0.00377764 0)
(0.222506 -0.00526583 0)
(0.231242 -0.0079064 0)
(0.243676 -0.0129365 0)
(0.262165 -0.0230837 0)
(0.28972 -0.0443863 0)
(0.324706 -0.0875623 0)
(1.02873 0.230537 0)
(1.06518 0.337271 0)
(1.02857 0.307931 0)
(0.952119 0.249926 0)
(0.866786 0.194715 0)
(0.785979 0.150082 0)
(0.714467 0.116314 0)
(0.653235 0.091305 0)
(0.601529 0.0727462 0)
(0.55802 0.0588022 0)
(0.521358 0.0481513 0)
(0.490358 0.0398724 0)
(0.464034 0.0333271 0)
(0.441585 0.0280709 0)
(0.42237 0.02379 0)
(0.405869 0.0202589 0)
(0.391666 0.0173134 0)
(0.37942 0.0148316 0)
(0.368854 0.0127212 0)
(0.359738 0.0109119 0)
(0.351882 0.00934887 0)
(0.345129 0.00798894 0)
(0.339345 0.00679762 0)
(0.334418 0.00574701 0)
(0.330254 0.00481419 0)
(0.326774 0.00398013 0)
(0.32391 0.00322871 0)
(0.321606 0.00254612 0)
(0.319814 0.00192022 0)
(0.318497 0.00134017 0)
(0.317624 0.000795902 0)
(0.317172 0.000277833 0)
(0.317126 -0.000223616 0)
(0.317476 -0.000718492 0)
(0.318225 -0.00121792 0)
(0.319381 -0.00173498 0)
(0.320967 -0.00228593 0)
(0.323018 -0.00289221 0)
(0.32559 -0.0035835 0)
(0.328765 -0.00440304 0)
(0.332664 -0.00541655 0)
(0.337459 -0.00672838 0)
(0.343408 -0.00851058 0)
(0.35088 -0.0110566 0)
(0.360411 -0.0148798 0)
(0.372738 -0.0208876 0)
(0.388799 -0.0306602 0)
(0.409601 -0.0468694 0)
(0.435219 -0.0737072 0)
(0.461741 -0.115536 0)
(1.02485 0.170712 0)
(1.0701 0.314576 0)
(1.08052 0.338855 0)
(1.0526 0.31133 0)
(1.00164 0.267036 0)
(0.941461 0.222023 0)
(0.880439 0.182492 0)
(0.822921 0.149831 0)
(0.770778 0.123508 0)
(0.724496 0.102448 0)
(0.683873 0.0855697 0)
(0.648419 0.0719548 0)
(0.617554 0.0608768 0)
(0.590706 0.051777 0)
(0.567354 0.0442305 0)
(0.547036 0.0379144 0)
(0.529355 0.0325822 0)
(0.513971 0.0280443 0)
(0.500593 0.0241531 0)
(0.488975 0.0207932 0)
(0.478905 0.0178726 0)
(0.470204 0.015318 0)
(0.462718 0.0130696 0)
(0.456315 0.0110785 0)
(0.450884 0.00930411 0)
(0.446329 0.00771222 0)
(0.442567 0.00627367 0)
(0.43953 0.00496316 0)
(0.43716 0.0037583 0)
(0.435409 0.00263884 0)
(0.434241 0.00158586 0)
(0.433626 0.000581145 0)
(0.433546 -0.000393674 0)
(0.43399 -0.00135797 0)
(0.434961 -0.00233329 0)
(0.436471 -0.00334496 0)
(0.438548 -0.00442431 0)
(0.441236 -0.00561211 0)
(0.444603 -0.0069637 0)
(0.448744 -0.00855726 0)
(0.453795 -0.0105069 0)
(0.45994 -0.012984 0)
(0.467429 -0.0162516 0)
(0.476591 -0.0207197 0)
(0.487836 -0.0270299 0)
(0.501615 -0.0361734 0)
(0.518306 -0.0496176 0)
(0.537915 -0.0693579 0)
(0.55932 -0.0976401 0)
(0.579043 -0.13542 0)
(1.01676 0.128186 0)
(1.05701 0.275112 0)
(1.08731 0.331695 0)
(1.09072 0.333601 0)
(1.07011 0.308298 0)
(1.0343 0.27263 0)
(0.990776 0.235626 0)
(0.944743 0.201415 0)
(0.899451 0.171453 0)
(0.856714 0.145902 0)
(0.817397 0.124375 0)
(0.781791 0.106309 0)
(0.749869 0.0911384 0)
(0.721437 0.0783556 0)
(0.696225 0.0675334 0)
(0.673938 0.0583207 0)
(0.654285 0.050433 0)
(0.636995 0.0436407 0)
(0.621819 0.0377583 0)
(0.608533 0.0326358 0)
(0.596938 0.0281506 0)
(0.58686 0.0242026 0)
(0.578144 0.0207086 0)
(0.570656 0.0175994 0)
(0.564279 0.0148167 0)
(0.55891 0.0123106 0)
(0.554463 0.0100381 0)
(0.550863 0.00796134 0)
(0.548046 0.00604663 0)
(0.54596 0.00426303 0)
(0.544562 0.00258147 0)
(0.543823 0.000973683 0)
(0.54372 -0.000588947 0)
(0.544243 -0.0021367 0)
(0.545393 -0.0037032 0)
(0.547184 -0.00532768 0)
(0.549645 -0.00705811 0)
(0.552823 -0.00895565 0)
(0.556785 -0.0111013 0)
(0.561625 -0.0136054 0)
(0.56747 -0.0166226 0)
(0.574478 -0.0203729 0)
(0.58285 -0.0251724 0)
(0.592813 -0.0314769 0)
(0.604599 -0.0399342 0)
(0.618373 -0.0514364 0)
(0.634088 -0.0671288 0)
(0.651249 -0.0882914 0)
(0.668509 -0.115925 0)
(0.683354 -0.149704 0)
(1.01072 0.0991285 0)
(1.04301 0.23516 0)
(1.07861 0.307004 0)
(1.09884 0.330698 0)
(1.09976 0.324315 0)
(1.08501 0.301779 0)
(1.05952 0.272285 0)
(1.02769 0.241261 0)
(0.992953 0.211567 0)
(0.95767 0.184501 0)
(0.923368 0.160479 0)
(0.890943 0.139464 0)
(0.860864 0.121213 0)
(0.833325 0.105407 0)
(0.808349 0.0917184 0)
(0.785856 0.0798444 0)
(0.765713 0.0695169 0)
(0.74776 0.0605046 0)
(0.731828 0.0526112 0)
(0.717749 0.0456706 0)
(0.705365 0.039543 0)
(0.694528 0.0341101 0)
(0.685101 0.0292716 0)
(0.676962 0.0249422 0)
(0.670001 0.0210484 0)
(0.664122 0.0175264 0)
(0.659237 0.0143202 0)
(0.655274 0.0113802 0)
(0.652168 0.0086613 0)
(0.649868 0.00612175 0)
(0.64833 0.00372201 0)
(0.647522 0.00142332 0)
(0.647422 -0.000813693 0)
(0.648018 -0.00303069 0)
(0.649311 -0.00527373 0)
(0.651313 -0.00759595 0)
(0.654051 -0.0100613 0)
(0.657566 -0.0127495 0)
(0.66192 -0.015763 0)
(0.667191 -0.0192371 0)
(0.673479 -0.0233525 0)
(0.680901 -0.0283544 0)
(0.689586 -0.0345741 0)
(0.699652 -0.0424562 0)
(0.711171 -0.052581 0)
(0.724093 -0.0656679 0)
(0.738136 -0.0825244 0)
(0.752637 -0.103885 0)
(0.766398 -0.130068 0)
(0.777719 -0.160371 0)
(1.00696 0.0787016 0)
(1.03213 0.199724 0)
(1.0665 0.276218 0)
(1.09407 0.313666 0)
(1.10827 0.322604 0)
(1.10917 0.313118 0)
(1.09911 0.293102 0)
(1.08108 0.268063 0)
(1.05788 0.241508 0)
(1.03184 0.21549 0)
(1.00469 0.191092 0)
(0.97766 0.168798 0)
(0.951544 0.148739 0)
(0.926846 0.130855 0)
(0.90385 0.114989 0)
(0.882687 0.100944 0)
(0.863391 0.0885189 0)
(0.845933 0.0775177 0)
(0.830242 0.0677621 0)
(0.816228 0.0590924 0)
(0.803789 0.0513673 0)
(0.79282 0.044463 0)
(0.783217 0.0382711 0)
(0.774882 0.0326963 0)
(0.767723 0.0276551 0)
(0.761655 0.0230732 0)
(0.756603 0.0188845 0)
(0.752499 0.0150291 0)
(0.749285 0.0114517 0)
(0.746911 0.00810094 0)
(0.745337 0.00492728 0)
(0.744531 0.001882 0)
(0.744473 -0.00108459 0)
(0.745149 -0.00402497 0)
(0.74656 -0.00699676 0)
(0.748713 -0.0100656 0)
(0.75163 -0.0133092 0)
(0.755345 -0.0168219 0)
(0.759904 -0.0207218 0)
(0.765365 -0.0251589 0)
(0.771794 -0.030326 0)
(0.77926 -0.0364718 0)
(0.787822 -0.0439147 0)
(0.797504 -0.0530539 0)
(0.80826 -0.064371 0)
(0.819911 -0.0784075 0)
(0.832078 -0.0956936 0)
(0.844105 -0.116604 0)
(0.855033 -0.141119 0)
(0.863726 -0.168507 0)
(1.00471 0.0639232 0)
(1.02437 0.169794 0)
(1.05519 0.244927 0)
(1.08472 0.289705 0)
(1.10613 0.309567 0)
(1.11752 0.311151 0)
(1.11932 0.300544 0)
(1.11308 0.282604 0)
(1.10073 0.260868 0)
(1.08417 0.237722 0)
(1.06502 0.214677 0)
(1.04454 0.192622 0)
(1.02371 0.172029 0)
(1.0032 0.1531 0)
(0.983489 0.135875 0)
(0.964875 0.1203 0)
(0.947539 0.106268 0)
(0.931576 0.0936514 0)
(0.917016 0.0823138 0)
(0.903851 0.0721221 0)
(0.892045 0.0629501 0)
(0.881544 0.0546811 0)
(0.872286 0.0472086 0)
(0.864205 0.0404358 0)
(0.857234 0.0342749 0)
(0.851308 0.028646 0)
(0.846367 0.0234763 0)
(0.842355 0.0186984 0)
(0.839223 0.0142495 0)
(0.836929 0.0100698 0)
(0.835436 0.0061017 0)
(0.834717 0.00228758 0)
(0.834752 -0.00143122 0)
(0.835529 -0.00511657 0)
(0.837044 -0.00883592 0)
(0.839303 -0.0126651 0)
(0.842321 -0.0166921 0)
(0.84612 -0.0210215 0)
(0.850729 -0.02578 0)
(0.856183 -0.0311234 0)
(0.862515 -0.0372441 0)
(0.869749 -0.0443792 0)
(0.877886 -0.0528163 0)
(0.88688 -0.0628947 0)
(0.89661 -0.0749942 0)
(0.906837 -0.0895024 0)
(0.917166 -0.106747 0)
(0.927017 -0.126886 0)
(0.935654 -0.149751 0)
(0.94231 -0.174697 0)
(1.00335 0.0528635 0)
(1.01892 0.144884 0)
(1.04574 0.215585 0)
(1.07452 0.263189 0)
(1.09915 0.29001 0)
(1.11697 0.300058 0)
(1.1272 0.297664 0)
(1.13025 0.286745 0)
(1.12721 0.270476 0)
(1.1194 0.251246 0)
(1.10813 0.230748 0)
(1.09455 0.21012 0)
(1.07961 0.190088 0)
(1.06407 0.171078 0)
(1.0485 0.153316 0)
(1.0333 0.136894 0)
(1.01877 0.121818 0)
(1.0051 0.10804 0)
(0.992408 0.0954859 0)
(0.980766 0.084063 0)
(0.970199 0.0736742 0)
(0.960708 0.0642215 0)
(0.952275 0.0556098 0)
(0.944871 0.0477485 0)
(0.938456 0.0405521 0)
(0.932992 0.0339402 0)
(0.928436 0.0278376 0)
(0.924749 0.0221729 0)
(0.921893 0.0168784 0)
(0.919836 0.0118887 0)
(0.918548 0.00713956 0)
(0.918008 0.00256685 0)
(0.918197 -0.00189527 0)
(0.919105 -0.00631609 0)
(0.920728 -0.0107705 0)
(0.923066 -0.0153417 0)
(0.926127 -0.0201243 0)
(0.929921 -0.0252282 0)
(0.934463 -0.030783 0)
(0.939763 -0.0369427 0)
(0.945827 -0.0438903 0)
(0.952642 -0.0518419 0)
(0.960166 -0.0610467 0)
(0.968307 -0.071782 0)
(0.976906 -0.0843366 0)
(0.985705 -0.0989778 0)
(0.994334 -0.115895 0)
(1.00231 -0.135122 0)
(1.00907 -0.156443 0)
(1.01409 -0.17932 0)
(1.00249 0.0442995 0)
(1.01505 0.124133 0)
(1.03815 0.189051 0)
(1.06497 0.236561 0)
(1.09044 0.267208 0)
(1.11178 0.283176 0)
(1.12758 0.287345 0)
(1.13751 0.282663 0)
(1.14195 0.271769 0)
(1.14167 0.256839 0)
(1.13759 0.239553 0)
(1.13065 0.221152 0)
(1.12168 0.202511 0)
(1.11141 0.184219 0)
(1.10041 0.166651 0)
(1.08916 0.150031 0)
(1.078 0.134472 0)
(1.0672 0.120014 0)
(1.05694 0.106647 0)
(1.04735 0.0943317 0)
(1.03853 0.0830077 0)
(1.03051 0.0726046 0)
(1.02332 0.0630463 0)
(1.01696 0.0542551 0)
(1.01144 0.0461538 0)
(1.00673 0.0386665 0)
(1.00282 0.0317196 0)
(0.999677 0.0252417 0)
(0.997284 0.0191631 0)
(0.995619 0.0134153 0)
(0.994661 0.0079303 0)
(0.994395 0.0026394 0)
(0.994807 -0.00252811 0)
(0.995887 -0.00764651 0)
(0.997632 -0.0127956 0)
(1.00004 -0.0180628 0)
(1.00311 -0.0235461 0)
(1.00684 -0.0293564 0)
(1.01123 -0.0356211 0)
(1.01628 -0.0424871 0)
(1.02196 -0.0501225 0)
(1.02825 -0.058718 0)
(1.03506 -0.0684833 0)
(1.04228 -0.079639 0)
(1.04974 -0.0923989 0)
(1.05718 -0.106941 0)
(1.06428 -0.123366 0)
(1.07065 -0.14164 0)
(1.07585 -0.161545 0)
(1.07951 -0.182645 0)
(1.00193 0.0374704 0)
(1.01224 0.106719 0)
(1.03213 0.165433 0)
(1.05657 0.211069 0)
(1.08154 0.243242 0)
(1.10444 0.262952 0)
(1.12365 0.271981 0)
(1.13839 0.272427 0)
(1.14854 0.26636 0)
(1.1544 0.255632 0)
(1.15654 0.241785 0)
(1.15562 0.226044 0)
(1.1523 0.20934 0)
(1.14722 0.192355 0)
(1.1409 0.175571 0)
(1.13382 0.159311 0)
(1.12635 0.143781 0)
(1.11877 0.129102 0)
(1.11133 0.115329 0)
(1.1042 0.102475 0)
(1.09749 0.0905221 0)
(1.0913 0.0794318 0)
(1.0857 0.0691527 0)
(1.08071 0.059625 0)
(1.07637 0.0507841 0)
(1.07267 0.0425631 0)
(1.06963 0.0348939 0)
(1.06723 0.0277081 0)
(1.06547 0.0209371 0)
(1.06434 0.0145123 0)
(1.06383 0.00836427 0)
(1.06393 0.00242218 0)
(1.06464 -0.00338714 0)
(1.06594 -0.00914056 0)
(1.06783 -0.0149201 0)
(1.07031 -0.0208148 0)
(1.07337 -0.0269225 0)
(1.077 -0.0333519 0)
(1.0812 -0.0402247 0)
(1.08594 -0.047677 0)
(1.09118 -0.0558596 0)
(1.09688 -0.0649366 0)
(1.10294 -0.0750809 0)
(1.10924 -0.0864646 0)
(1.1156 -0.0992429 0)
(1.1218 -0.113531 0)
(1.12754 -0.129371 0)
(1.13252 -0.1467 0)
(1.13641 -0.165315 0)
(1.13893 -0.184866 0)
(1.00154 0.0318927 0)
(1.01014 0.0919616 0)
(1.02734 0.144529 0)
(1.0494 0.187268 0)
(1.07317 0.219359 0)
(1.09639 0.241075 0)
(1.11745 0.253421 0)
(1.13536 0.257811 0)
(1.14966 0.255792 0)
(1.16032 0.24886 0)
(1.1676 0.238353 0)
(1.17189 0.225402 0)
(1.17368 0.210922 0)
(1.17345 0.195625 0)
(1.17167 0.18005 0)
(1.16875 0.16459 0)
(1.16505 0.149522 0)
(1.16087 0.135029 0)
(1.15646 0.121226 0)
(1.15202 0.108176 0)
(1.14769 0.0959008 0)
(1.1436 0.0843969 0)
(1.13984 0.073639 0)
(1.13646 0.0635881 0)
(1.13352 0.0541958 0)
(1.13105 0.0454068 0)
(1.12906 0.0371617 0)
(1.12758 0.0293979 0)
(1.12661 0.0220508 0)
(1.12614 0.0150538 0)
(1.12619 0.00833859 0)
(1.12674 0.00183463 0)
(1.12781 -0.0045315 0)
(1.12937 -0.0108369 0)
(1.13144 -0.0171635 0)
(1.134 -0.0235992 0)
(1.13706 -0.0302393 0)
(1.14058 -0.0371877 0)
(1.14456 -0.044558 0)
(1.14897 -0.0524735 0)
(1.15375 -0.0610668 0)
(1.15885 -0.0704771 0)
(1.16417 -0.0808447 0)
(1.16958 -0.092302 0)
(1.17492 -0.10496 0)
(1.17998 -0.118889 0)
(1.18453 -0.134099 0)
(1.18832 -0.150512 0)
(1.19108 -0.167951 0)
(1.19261 -0.186131 0)
(1.00126 0.0272466 0)
(1.00854 0.0793265 0)
(1.02351 0.12603 0)
(1.04335 0.165333 0)
(1.06561 0.19626 0)
(1.0884 0.218665 0)
(1.11025 0.233026 0)
(1.13008 0.24024 0)
(1.14726 0.241413 0)
(1.16154 0.237707 0)
(1.17291 0.230231 0)
(1.18156 0.219976 0)
(1.18777 0.207791 0)
(1.19191 0.194373 0)
(1.19433 0.180277 0)
(1.19538 0.165932 0)
(1.19538 0.151659 0)
(1.1946 0.137689 0)
(1.19329 0.124184 0)
(1.19165 0.111247 0)
(1.18985 0.0989402 0)
(1.18801 0.0872889 0)
(1.18625 0.0762952 0)
(1.18466 0.0659417 0)
(1.18329 0.0561972 0)
(1.1822 0.0470201 0)
(1.18142 0.0383616 0)
(1.18099 0.030167 0)
(1.18091 0.0223777 0)
(1.18122 0.0149314 0)
(1.18191 0.00776278 0)
(1.18299 0.000803725 0)
(1.18447 -0.00601736 0)
(1.18636 -0.0127757 0)
(1.18863 -0.0195511 0)
(1.1913 -0.0264283 0)
(1.19435 -0.033498 0)
(1.19777 -0.0408575 0)
(1.20153 -0.0486105 0)
(1.2056 -0.0568673 0)
(1.20993 -0.0657428 0)
(1.21444 -0.0753533 0)
(1.21905 -0.0858115 0)
(1.22363 -0.0972184 0)
(1.22804 -0.109652 0)
(1.23209 -0.123153 0)
(1.23559 -0.13771 0)
(1.23833 -0.153246 0)
(1.24012 -0.169605 0)
(1.24078 -0.186558 0)
(1.00105 0.0233118 0)
(1.0073 0.0683966 0)
(1.02043 0.109612 0)
(1.03828 0.145242 0)
(1.05895 0.174304 0)
(1.0809 0.196428 0)
(1.10282 0.211755 0)
(1.12367 0.220808 0)
(1.14274 0.224342 0)
(1.15963 0.223227 0)
(1.17415 0.218349 0)
(1.18632 0.210546 0)
(1.19627 0.200571 0)
(1.20421 0.18907 0)
(1.21041 0.176584 0)
(1.21511 0.163548 0)
(1.21859 0.150306 0)
(1.22109 0.137119 0)
(1.22282 0.124179 0)
(1.22398 0.111623 0)
(1.22473 0.0995418 0)
(1.22522 0.0879898 0)
(1.22555 0.0769923 0)
(1.22583 0.0665525 0)
(1.22614 0.0566562 0)
(1.22653 0.047276 0)
(1.22706 0.0383745 0)
(1.22777 0.0299063 0)
(1.22868 0.02182 0)
(1.22983 0.0140593 0)
(1.23124 0.00656361 0)
(1.23291 -0.000731269 0)
(1.23486 -0.00789333 0)
(1.23709 -0.0149943 0)
(1.2396 -0.02211 0)
(1.2424 -0.0293204 0)
(1.24547 -0.0367102 0)
(1.24879 -0.0443688 0)
(1.25235 -0.0523896 0)
(1.25609 -0.0608698 0)
(1.25998 -0.0699075 0)
(1.26394 -0.0795994 0)
(1.26789 -0.0900353 0)
(1.27171 -0.101291 0)
(1.27527 -0.113421 0)
(1.27842 -0.126446 0)
(1.28099 -0.140344 0)
(1.28282 -0.155039 0)
(1.28375 -0.1704 0)
(1.28366 -0.186239 0)
(1.00089 0.0199312 0)
(1.00633 0.0588464 0)
(1.01792 0.0949711 0)
(1.03403 0.126874 0)
(1.05316 0.153635 0)
(1.07406 0.174785 0)
(1.09561 0.19026 0)
(1.11686 0.200322 0)
(1.13707 0.205462 0)
(1.15575 0.206309 0)
(1.17263 0.203547 0)
(1.18757 0.197864 0)
(1.20057 0.189903 0)
(1.21174 0.180242 0)
(1.22122 0.169385 0)
(1.2292 0.157751 0)
(1.23586 0.145686 0)
(1.24141 0.133463 0)
(1.24603 0.121293 0)
(1.2499 0.109335 0)
(1.25316 0.0977011 0)
(1.25595 0.086467 0)
(1.25839 0.0756782 0)
(1.26057 0.0653556 0)
(1.26259 0.0555007 0)
(1.26451 0.0460996 0)
(1.2664 0.0371261 0)
(1.2683 0.0285447 0)
(1.27026 0.0203119 0)
(1.2723 0.0123782 0)
(1.27446 0.004689 0)
(1.27675 -0.00281481 0)
(1.2792 -0.0101963 0)
(1.28181 -0.0175224 0)
(1.28458 -0.0248637 0)
(1.28752 -0.0322942 0)
(1.29063 -0.0398916 0)
(1.29387 -0.0477367 0)
(1.29724 -0.0559127 0)
(1.30068 -0.0645038 0)
(1.30416 -0.0735934 0)
(1.30761 -0.0832609 0)
(1.31095 -0.0935774 0)
(1.31407 -0.1046 0)
(1.31687 -0.116365 0)
(1.31922 -0.128879 0)
(1.32098 -0.142117 0)
(1.322 -0.156007 0)
(1.32218 -0.170437 0)
(1.3214 -0.185254 0)
(1.00077 0.0169889 0)
(1.00555 0.0504195 0)
(1.01588 0.0818389 0)
(1.03049 0.110063 0)
(1.04818 0.134269 0)
(1.06797 0.153962 0)
(1.0889 0.168962 0)
(1.11011 0.179358 0)
(1.13091 0.185449 0)
(1.15077 0.187671 0)
(1.16934 0.186542 0)
(1.1864 0.182606 0)
(1.20185 0.176401 0)
(1.21568 0.168426 0)
(1.22796 0.159133 0)
(1.23878 0.148912 0)
(1.24829 0.138093 0)
(1.25661 0.126948 0)
(1.2639 0.115694 0)
(1.2703 0.1045 0)
(1.27594 0.0934928 0)
(1.28095 0.0827627 0)
(1.28543 0.0723697 0)
(1.28948 0.0623492 0)
(1.29319 0.0527156 0)
(1.29664 0.0434669 0)
(1.29989 0.0345874 0)
(1.303 0.0260507 0)
(1.306 0.0178216 0)
(1.30896 0.00985771 0)
(1.31189 0.00211092 0)
(1.31482 -0.00547191 0)
(1.31778 -0.0129482 0)
(1.32078 -0.0203789 0)
(1.32382 -0.0278286 0)
(1.32692 -0.0353648 0)
(1.33007 -0.0430575 0)
(1.33325 -0.0509785 0)
(1.33644 -0.059201 0)
(1.33961 -0.0677972 0)
(1.34271 -0.0768374 0)
(1.34569 -0.0863863 0)
(1.34847 -0.0964996 0)
(1.35097 -0.107219 0)
(1.35309 -0.11857 0)
(1.35472 -0.130549 0)
(1.35575 -0.143128 0)
(1.35606 -0.156243 0)
(1.35557 -0.169799 0)
(1.35418 -0.183666 0)
(1.00067 0.0143968 0)
(1.00492 0.0429109 0)
(1.01422 0.0699799 0)
(1.02753 0.0946313 0)
(1.04392 0.116149 0)
(1.06262 0.134056 0)
(1.0828 0.148116 0)
(1.10372 0.15831 0)
(1.12472 0.1648 0)
(1.14529 0.167879 0)
(1.16503 0.167925 0)
(1.18367 0.165362 0)
(1.20102 0.160625 0)
(1.21701 0.154135 0)
(1.23161 0.146285 0)
(1.24487 0.137425 0)
(1.25684 0.127861 0)
(1.26762 0.11785 0)
(1.27731 0.107605 0)
(1.28602 0.097296 0)
(1.29387 0.0870555 0)
(1.30094 0.0769817 0)
(1.30735 0.0671444 0)
(1.31318 0.0575886 0)
(1.31852 0.0483388 0)
(1.32344 0.0394025 0)
(1.32801 0.0307729 0)
(1.33229 0.0224318 0)
(1.33633 0.0143517 0)
(1.34018 0.0064973 0)
(1.34386 -0.00117302 0)
(1.34743 -0.00870606 0)
(1.35089 -0.016153 0)
(1.35427 -0.0235686 0)
(1.35759 -0.0310107 0)
(1.36085 -0.0385398 0)
(1.36404 -0.046218 0)
(1.36716 -0.0541085 0)
(1.3702 -0.0622745 0)
(1.37311 -0.0707776 0)
(1.37587 -0.0796761 0)
(1.37841 -0.0890222 0)
(1.38069 -0.0988594 0)
(1.38262 -0.109218 0)
(1.38412 -0.120113 0)
(1.38511 -0.131537 0)
(1.38549 -0.143461 0)
(1.38517 -0.155826 0)
(1.38407 -0.168552 0)
(1.38212 -0.18153 0)
(1.0006 0.0120863 0)
(1.00442 0.0361545 0)
(1.01285 0.0591899 0)
(1.02507 0.0803999 0)
(1.04033 0.0991747 0)
(1.05799 0.115079 0)
(1.07738 0.127858 0)
(1.09786 0.137433 0)
(1.11882 0.143872 0)
(1.13975 0.147361 0)
(1.16026 0.148172 0)
(1.18003 0.146624 0)
(1.19884 0.143063 0)
(1.21653 0.137837 0)
(1.23303 0.131276 0)
(1.2483 0.123687 0)
(1.26238 0.115341 0)
(1.27528 0.106476 0)
(1.28708 0.0972898 0)
(1.29785 0.0879464 0)
(1.30768 0.0785762 0)
(1.31663 0.0692794 0)
(1.32481 0.0601297 0)
(1.33228 0.0511779 0)
(1.33913 0.0424549 0)
(1.34543 0.0339748 0)
(1.35125 0.0257378 0)
(1.35663 0.0177327 0)
(1.36165 0.00993841 0)
(1.36634 0.00232624 0)
(1.37074 -0.00513909 0)
(1.3749 -0.0124981 0)
(1.37884 -0.0197957 0)
(1.38259 -0.0270802 0)
(1.38616 -0.0344027 0)
(1.38956 -0.0418164 0)
(1.3928 -0.0493755 0)
(1.39586 -0.0571348 0)
(1.39874 -0.0651483 0)
(1.40142 -0.0734678 0)
(1.40385 -0.082141 0)
(1.406 -0.0912098 0)
(1.40781 -0.100707 0)
(1.40922 -0.110655 0)
(1.41017 -0.121061 0)
(1.41058 -0.131914 0)
(1.41037 -0.143184 0)
(1.40947 -0.154822 0)
(1.40782 -0.166754 0)
(1.40537 -0.178892 0)
(1.00054 0.0100029 0)
(1.00401 0.0300129 0)
(1.01174 0.0492914 0)
(1.02304 0.0671981 0)
(1.03731 0.0832246 0)
(1.05404 0.096988 0)
(1.07268 0.108242 0)
(1.09264 0.116877 0)
(1.11339 0.122903 0)
(1.13446 0.126431 0)
(1.15544 0.127649 0)
(1.176 0.126793 0)
(1.19588 0.124134 0)
(1.21489 0.119947 0)
(1.23289 0.114509 0)
(1.24982 0.108076 0)
(1.26564 0.100885 0)
(1.28033 0.0931446 0)
(1.29394 0.0850342 0)
(1.30649 0.0767042 0)
(1.31805 0.0682772 0)
(1.32866 0.0598494 0)
(1.33841 0.0514937 0)
(1.34736 0.0432621 0)
(1.35557 0.0351884 0)
(1.36312 0.0272908 0)
(1.37006 0.019574 0)
(1.37645 0.012032 0)
(1.38235 0.00464919 0)
(1.38781 -0.00259764 0)
(1.39287 -0.00973797 0)
(1.39757 -0.0168064 0)
(1.40194 -0.0238416 0)
(1.40601 -0.0308857 0)
(1.4098 -0.0379829 0)
(1.41332 -0.0451793 0)
(1.41658 -0.0525217 0)
(1.41958 -0.0600566 0)
(1.42231 -0.0678296 0)
(1.42475 -0.0758834 0)
(1.42687 -0.0842567 0)
(1.42864 -0.0929823 0)
(1.43002 -0.102085 0)
(1.43096 -0.111579 0)
(1.43139 -0.121467 0)
(1.43127 -0.131735 0)
(1.43053 -0.142355 0)
(1.42911 -0.153282 0)
(1.42696 -0.164452 0)
(1.42404 -0.17579 0)
(1.00049 0.00810172 0)
(1.00368 0.024371 0)
(1.01084 0.0401287 0)
(1.02138 0.0548653 0)
(1.03482 0.0681658 0)
(1.05074 0.0797058 0)
(1.06867 0.0892624 0)
(1.08811 0.0967166 0)
(1.10858 0.102046 0)
(1.12963 0.105309 0)
(1.15087 0.106633 0)
(1.17195 0.106189 0)
(1.1926 0.104181 0)
(1.2126 0.100825 0)
(1.23178 0.0963424 0)
(1.25001 0.0909446 0)
(1.26724 0.084829 0)
(1.28341 0.0781733 0)
(1.29851 0.0711328 0)
(1.31256 0.06384 0)
(1.32559 0.0564043 0)
(1.33762 0.0489135 0)
(1.34872 0.0414351 0)
(1.35894 0.0340186 0)
(1.36834 0.0266973 0)
(1.37697 0.0194904 0)
(1.38489 0.0124053 0)
(1.39216 0.00543904 0)
(1.39883 -0.00141992 0)
(1.40495 -0.00819019 0)
(1.41058 -0.0148963 0)
(1.41573 -0.0215674 0)
(1.42047 -0.0282366 0)
(1.4248 -0.0349396 0)
(1.42876 -0.0417146 0)
(1.43236 -0.0486005 0)
(1.43562 -0.0556369 0)
(1.43853 -0.062863 0)
(1.44109 -0.0703162 0)
(1.4433 -0.0780312 0)
(1.44512 -0.0860388 0)
(1.44653 -0.0943638 0)
(1.44751 -0.103024 0)
(1.44799 -0.112028 0)
(1.44796 -0.121374 0)
(1.44734 -0.131047 0)
(1.44611 -0.14102 0)
(1.4442 -0.15125 0)
(1.44159 -0.161685 0)
(1.43823 -0.172256 0)
(1.00045 0.00634546 0)
(1.00342 0.0191301 0)
(1.01012 0.031564 0)
(1.02006 0.0432511 0)
(1.03281 0.0538621 0)
(1.04804 0.0631327 0)
(1.06535 0.0708723 0)
(1.0843 0.0769684 0)
(1.10446 0.0813826 0)
(1.1254 0.0841417 0)
(1.14675 0.0853263 0)
(1.16816 0.0850579 0)
(1.18935 0.0834856 0)
(1.21007 0.0807744 0)
(1.23013 0.0770947 0)
(1.24937 0.0726141 0)
(1.2677 0.067491 0)
(1.28504 0.0618703 0)
(1.30134 0.0558804 0)
(1.3166 0.0496319 0)
(1.33082 0.0432177 0)
(1.34402 0.0367128 0)
(1.35624 0.0301758 0)
(1.36751 0.0236502 0)
(1.37788 0.0171659 0)
(1.3874 0.0107408 0)
(1.39614 0.00438229 0)
(1.40413 -0.00191095 0)
(1.41144 -0.00814789 0)
(1.4181 -0.0143437 0)
(1.42418 -0.0205188 0)
(1.4297 -0.0266977 0)
(1.43471 -0.0329082 0)
(1.43923 -0.0391805 0)
(1.4433 -0.0455463 0)
(1.44693 -0.0520385 0)
(1.45014 -0.0586898 0)
(1.45293 -0.0655322 0)
(1.45531 -0.0725959 0)
(1.45726 -0.0799085 0)
(1.45878 -0.0874934 0)
(1.45984 -0.095369 0)
(1.46042 -0.103547 0)
(1.46048 -0.112031 0)
(1.45999 -0.120816 0)
(1.45892 -0.129885 0)
(1.45722 -0.139214 0)
(1.45487 -0.148762 0)
(1.45182 -0.158483 0)
(1.44805 -0.168317 0)
(1.00042 0.00470208 0)
(1.00323 0.0142039 0)
(1.00957 0.0234735 0)
(1.01902 0.0322145 0)
(1.03123 0.0401769 0)
(1.04591 0.0471559 0)
(1.06271 0.0529988 0)
(1.08123 0.0576094 0)
(1.10108 0.060946 0)
(1.12188 0.0630162 0)
(1.14325 0.0638693 0)
(1.16485 0.063587 0)
(1.18639 0.0622744 0)
(1.20761 0.0600508 0)
(1.2283 0.057042 0)
(1.24828 0.0533737 0)
(1.26743 0.049166 0)
(1.28565 0.0445303 0)
(1.30287 0.0395661 0)
(1.31906 0.0343599 0)
(1.3342 0.0289849 0)
(1.3483 0.0235005 0)
(1.36138 0.0179534 0)
(1.37346 0.0123784 0)
(1.38459 0.00679937 0)
(1.39481 0.00123049 0)
(1.40416 -0.00432243 0)
(1.41271 -0.00986092 0)
(1.42049 -0.0153926 0)
(1.42756 -0.0209305 0)
(1.43395 -0.0264916 0)
(1.43972 -0.0320964 0)
(1.4449 -0.0377681 0)
(1.44953 -0.0435317 0)
(1.45362 -0.0494133 0)
(1.45722 -0.0554398 0)
(1.46033 -0.0616376 0)
(1.46296 -0.0680321 0)
(1.46511 -0.074647 0)
(1.4668 -0.0815032 0)
(1.468 -0.0886179 0)
(1.46871 -0.0960035 0)
(1.4689 -0.103666 0)
(1.46855 -0.111607 0)
(1.46763 -0.119816 0)
(1.46612 -0.128277 0)
(1.46399 -0.136965 0)
(1.4612 -0.145844 0)
(1.45774 -0.154871 0)
(1.45359 -0.163995 0)
(1.0004 0.00314351 0)
(1.00308 0.00951566 0)
(1.00917 0.0157442 0)
(1.01826 0.0216226 0)
(1.03006 0.026975 0)
(1.04432 0.0316547 0)
(1.06071 0.0355501 0)
(1.07889 0.0385875 0)
(1.09849 0.0407305 0)
(1.11913 0.0419773 0)
(1.14047 0.0423553 0)
(1.16216 0.0419156 0)
(1.18391 0.0407266 0)
(1.20544 0.0388679 0)
(1.22655 0.0364248 0)
(1.24703 0.0334834 0)
(1.26675 0.0301268 0)
(1.28557 0.0264325 0)
(1.30343 0.0224704 0)
(1.32028 0.0183012 0)
(1.33607 0.0139761 0)
(1.3508 0.009537 0)
(1.36448 0.00501637 0)
(1.37713 0.000438021 0)
(1.38879 -0.00418215 0)
(1.39948 -0.00883539 0)
(1.40926 -0.0135192 0)
(1.41816 -0.0182366 0)
(1.42625 -0.0229952 0)
(1.43356 -0.0278063 0)
(1.44013 -0.0326848 0)
(1.44602 -0.0376477 0)
(1.45126 -0.042714 0)
(1.45589 -0.0479042 0)
(1.45993 -0.0532392 0)
(1.46341 -0.0587402 0)
(1.46635 -0.0644278 0)
(1.46877 -0.0703215 0)
(1.47067 -0.0764389 0)
(1.47206 -0.0827949 0)
(1.47292 -0.0894011 0)
(1.47326 -0.0962647 0)
(1.47306 -0.103388 0)
(1.47231 -0.110767 0)
(1.47097 -0.11839 0)
(1.46904 -0.126242 0)
(1.46649 -0.134295 0)
(1.46329 -0.142518 0)
(1.45944 -0.150871 0)
(1.45492 -0.159308 0)
(1.00039 0.00164439 0)
(1.00299 0.00499501 0)
(1.0089 0.00827112 0)
(1.01776 0.0113491 0)
(1.02928 0.0141231 0)
(1.04324 0.0165039 0)
(1.05935 0.0184223 0)
(1.07729 0.0198309 0)
(1.09668 0.0207043 0)
(1.1172 0.0210375 0)
(1.13847 0.0208428 0)
(1.16019 0.0201467 0)
(1.18203 0.0189866 0)
(1.20374 0.0174064 0)
(1.22508 0.0154542 0)
(1.24584 0.0131785 0)
(1.26588 0.0106265 0)
(1.28507 0.00784219 0)
(1.3033 0.00486484 0)
(1.32053 0.00172851 0)
(1.3367 -0.00153852 0)
(1.35179 -0.0049138 0)
(1.36582 -0.00838057 0)
(1.37879 -0.0119274 0)
(1.39073 -0.0155479 0)
(1.40167 -0.0192401 0)
(1.41165 -0.023006 0)
(1.42072 -0.0268511 0)
(1.42892 -0.0307837 0)
(1.4363 -0.0348147 0)
(1.44291 -0.0389569 0)
(1.44878 -0.0432246 0)
(1.45395 -0.0476333 0)
(1.45847 -0.0521991 0)
(1.46236 -0.0569382 0)
(1.46565 -0.0618667 0)
(1.46836 -0.0669998 0)
(1.47051 -0.0723514 0)
(1.47211 -0.0779337 0)
(1.47316 -0.0837562 0)
(1.47366 -0.0898253 0)
(1.47362 -0.0961436 0)
(1.47302 -0.102709 0)
(1.47186 -0.109515 0)
(1.47011 -0.116549 0)
(1.46777 -0.123792 0)
(1.46481 -0.13122 0)
(1.46122 -0.138801 0)
(1.45699 -0.146499 0)
(1.45212 -0.154273 0)
(1.00038 0.000181225 0)
(1.00294 0.000576235 0)
(1.00876 0.000954635 0)
(1.01749 0.00127197 0)
(1.02887 0.00148997 0)
(1.04267 0.00157592 0)
(1.05862 0.00150378 0)
(1.07641 0.00125486 0)
(1.09568 0.000817739 0)
(1.1161 0.000187707 0)
(1.13731 -0.000634144 0)
(1.159 -0.00164206 0)
(1.18085 -0.00282686 0)
(1.20259 -0.00417715 0)
(1.224 -0.00568047 0)
(1.24485 -0.00732428 0)
(1.265 -0.00909672 0)
(1.28429 -0.0109873 0)
(1.30265 -0.0129872 0)
(1.31999 -0.0150897 0)
(1.33627 -0.0172904 0)
(1.35146 -0.019587 0)
(1.36557 -0.0219792 0)
(1.3786 -0.0244692 0)
(1.39058 -0.0270607 0)
(1.40153 -0.0297595 0)
(1.41151 -0.0325727 0)
(1.42053 -0.035509 0)
(1.42867 -0.0385781 0)
(1.43594 -0.0417907 0)
(1.44242 -0.0451582 0)
(1.44812 -0.0486926 0)
(1.4531 -0.052406 0)
(1.4574 -0.0563107 0)
(1.46103 -0.0604185 0)
(1.46404 -0.0647406 0)
(1.46645 -0.0692874 0)
(1.46827 -0.0740678 0)
(1.46951 -0.0790886 0)
(1.47019 -0.0843545 0)
(1.47031 -0.0898675 0)
(1.46987 -0.0956258 0)
(1.46886 -0.101624 0)
(1.46728 -0.107853 0)
(1.46512 -0.114297 0)
(1.46237 -0.120938 0)
(1.45901 -0.127751 0)
(1.45505 -0.134706 0)
(1.45046 -0.14177 0)
(1.44524 -0.148904 0)
(1.00038 -0.00126841 0)
(1.00293 -0.00380384 0)
(1.00874 -0.00630149 0)
(1.01746 -0.00872797 0)
(1.02882 -0.0110547 0)
(1.04259 -0.0132582 0)
(1.05851 -0.0153209 0)
(1.07626 -0.0172323 0)
(1.09549 -0.0189889 0)
(1.11586 -0.0205936 0)
(1.13701 -0.0220555 0)
(1.15863 -0.0233884 0)
(1.1804 -0.0246099 0)
(1.20206 -0.0257408 0)
(1.22337 -0.0268031 0)
(1.24413 -0.0278199 0)
(1.26416 -0.0288147 0)
(1.28333 -0.02981 0)
(1.30155 -0.0308279 0)
(1.31875 -0.031889 0)
(1.33487 -0.0330129 0)
(1.3499 -0.0342178 0)
(1.36383 -0.0355204 0)
(1.37667 -0.0369364 0)
(1.38844 -0.0384804 0)
(1.39917 -0.0401658 0)
(1.40891 -0.0420053 0)
(1.41769 -0.044011 0)
(1.42556 -0.0461941 0)
(1.43256 -0.0485654 0)
(1.43874 -0.0511352 0)
(1.44413 -0.0539132 0)
(1.44879 -0.0569086 0)
(1.45275 -0.0601299 0)
(1.45603 -0.0635848 0)
(1.45867 -0.0672803 0)
(1.46069 -0.0712218 0)
(1.46212 -0.0754135 0)
(1.46296 -0.0798577 0)
(1.46322 -0.0845547 0)
(1.46292 -0.089502 0)
(1.46206 -0.0946944 0)
(1.46063 -0.100123 0)
(1.45863 -0.105776 0)
(1.45606 -0.111637 0)
(1.4529 -0.117686 0)