/*--------------------------------*- C++ -*----------------------------------*\
| =========                 |                                                 |
| \\      /  F ield         | OpenFOAM: The Open Source CFD Toolbox           |
|  \\    /   O peration     | Version:  2306                                  |
|   \\  /    A nd           | Website:  www.openfoam.com                      |
|    \\/     M anipulation  |                                                 |
\*---------------------------------------------------------------------------*/
FoamFile
{
    version     2.0;
    format      ascii;
    arch        "LSB;label=32;scalar=64";
    class       volScalarField;
    location    "3.64";
    object      p;
}
// * * * * * * * * * * * * * * * * * * * * * * * * * * * * * * * * * * * * * //

dimensions      [0 2 -2 0 0 0 0];

internalField   nonuniform List<scalar> 
1900
(
0.0577298
0.0335042
0.0131078
-0.00223973
-0.0132688
-0.0238388
-0.0342993
-0.0464915
-0.0590817
-0.0731845
0.0284692
0.0202695
0.00894964
-0.00260896
-0.0136424
-0.0238419
-0.0342915
-0.044825
-0.0563463
-0.0674217
0.0193803
0.0148885
0.00737037
-0.00200175
-0.0120906
-0.0220758
-0.0318619
-0.0414216
-0.0508568
-0.0599542
0.0136833
0.0106094
0.00495823
-0.00269222
-0.0115467
-0.0207904
-0.0299857
-0.0389047
-0.0475035
-0.0556667
0.0114643
0.00892881
0.00418993
-0.00245835
-0.0104373
-0.0190408
-0.0277155
-0.0361379
-0.0441571
-0.0516829
0.0121036
0.00962325
0.00501337
-0.00145035
-0.00918688
-0.0174877
-0.0257933
-0.0337862
-0.0413414
-0.0484297
0.0155639
0.0126188
0.00733952
0.000259297
-0.00779672
-0.0160777
-0.0241177
-0.0317388
-0.0389325
-0.0457332
0.022267
0.0179728
0.0110778
0.0026132
-0.00620064
-0.0146167
-0.0224389
-0.0297606
-0.0367306
-0.0434106
0.0324113
0.0243138
0.0138813
0.00342589
-0.00587321
-0.0139744
-0.0213296
-0.0283609
-0.0352316
-0.0419006
0.0612631
0.0385927
0.0188899
0.00483353
-0.00481499
-0.0124984
-0.0197122
-0.0269112
-0.0340446
-0.0409066
-0.0964522
-0.0964858
-0.0965303
-0.0965838
-0.0966436
-0.0967092
-0.0967802
-0.0968555
-0.0969339
-0.0970138
-0.0970937
-0.097172
-0.0972471
-0.0973175
-0.0973817
-0.0974382
-0.0974857
-0.0975231
-0.0975493
-0.0975633
-0.0975646
-0.0975523
-0.0975263
-0.097486
-0.0974314
-0.0973623
-0.0972789
-0.0971814
-0.0970701
-0.0969458
-0.0968093
-0.0966622
-0.096506
-0.0963427
-0.0961736
-0.0959985
-0.0958142
-0.0956124
-0.0953781
-0.0950879
-0.0947101
-0.0942057
-0.093531
-0.092639
-0.0914794
-0.0899951
-0.0881183
-0.0857683
-0.0828551
-0.0792829
-0.0749536
-0.0697961
-0.063771
-0.0568783
-0.0491607
-0.0407198
-0.0316697
-0.0221676
-0.0123988
-0.0025675
0.00712086
0.0164624
0.0252698
0.0333758
0.0406399
0.0469609
0.0522694
0.0565347
0.0597521
0.0619511
0.0631788
0.0635083
0.0630165
0.0617978
0.0599419
0.0575477
0.0546992
0.0514859
0.0479757
0.0442423
0.0403326
0.0363034
0.0321792
0.0280024
0.0237748
0.0195298
0.0152445
0.010954
0.00660245
0.00225211
-0.0964478
-0.0964793
-0.0965061
-0.0965473
-0.0965982
-0.0966573
-0.0967232
-0.0967942
-0.0968686
-0.0969452
-0.0970222
-0.097098
-0.0971711
-0.0972399
-0.0973027
-0.097358
-0.0974046
-0.0974412
-0.0974665
-0.0974798
-0.0974801
-0.0974667
-0.0974392
-0.0973972
-0.0973403
-0.0972685
-0.0971816
-0.0970797
-0.096963
-0.0968317
-0.0966863
-0.0965272
-0.0963551
-0.0961708
-0.0959746
-0.0957659
-0.095542
-0.0952971
-0.0950205
-0.0946961
-0.0943014
-0.093808
-0.0931806
-0.0923769
-0.091346
-0.0900254
-0.0883363
-0.0861809
-0.0834466
-0.0800178
-0.0757999
-0.070734
-0.0648161
-0.0580308
-0.0504018
-0.0420002
-0.0329606
-0.0234494
-0.0136543
-0.00378559
0.00594845
0.0153345
0.0241807
0.0323328
0.0396262
0.0459729
0.0513031
0.0555889
0.0588234
0.0610385
0.0622801
0.0626253
0.0621532
0.0609613
0.0591349
0.0567761
0.0539639
0.0507931
0.047325
0.0436403
0.0397768
0.035801
0.0317252
0.027605
0.0234269
0.0192412
0.0150072
0.0107772
0.0064836
0.00220488
-0.0963302
-0.0964115
-0.0964567
-0.0965099
-0.0965659
-0.096627
-0.0966945
-0.0967672
-0.0968438
-0.0969229
-0.0970027
-0.0970815
-0.0971577
-0.0972296
-0.0972954
-0.0973537
-0.0974031
-0.097442
-0.0974695
-0.0974843
-0.0974856
-0.0974727
-0.0974452
-0.0974027
-0.097345
-0.097272
-0.097184
-0.0970809
-0.0969633
-0.0968312
-0.0966849
-0.0965242
-0.0963493
-0.09616
-0.095956
-0.095736
-0.0954979
-0.0952382
-0.0949517
-0.094631
-0.0942645
-0.0938336
-0.0933121
-0.0926594
-0.0918163
-0.0907056
-0.0892316
-0.087279
-0.0847263
-0.0814703
-0.0774064
-0.0724463
-0.0665434
-0.0597267
-0.0520527
-0.0436147
-0.0345405
-0.0249926
-0.0151682
-0.00529695
0.00442401
0.0137951
0.0226222
0.0307453
0.0380145
0.0443336
0.0496326
0.053888
0.0570945
0.0592885
0.0605166
0.06086
0.0603949
0.0592234
0.0574283
0.0551154
0.0523597
0.0492595
0.0458712
0.0422791
0.0385158
0.0346512
0.0306931
0.0266997
0.0226544
0.0186078
0.0145195
0.0104382
0.00630329
0.00217176
-0.0964136
-0.0964868
-0.0964905
-0.0965159
-0.096561
-0.0966226
-0.0966954
-0.0967754
-0.0968601
-0.0969475
-0.0970354
-0.097122
-0.0972053
-0.0972836
-0.0973551
-0.0974181
-0.0974713
-0.0975132
-0.0975425
-0.0975583
-0.0975597
-0.0975462
-0.0975173
-0.0974727
-0.0974123
-0.0973361
-0.0972444
-0.0971374
-0.0970154
-0.0968786
-0.0967271
-0.0965604
-0.0963773
-0.0961772
-0.0959601
-0.0957264
-0.0954768
-0.0952121
-0.0949318
-0.0946327
-0.0943078
-0.0939455
-0.0935227
-0.0929967
-0.092296
-0.0913295
-0.0899996
-0.0881855
-0.0857481
-0.082566
-0.0785494
-0.0736271
-0.0677706
-0.0609978
-0.0533645
-0.0449751
-0.0359654
-0.0265043
-0.0167918
-0.00704388
0.00253026
0.0117346
0.0203793
0.0283089
0.035387
0.0415221
0.0466486
0.0507478
0.0538201
0.0559076
0.0570596
0.0573601
0.0568852
0.0557381
0.0540004
0.0517766
0.0491392
0.0461833
0.042963
0.0395588
0.0360021
0.0323582
0.0286359
0.0248875
0.0211005
0.0173179
0.0135071
0.00970565
0.00586224
0.00201419
-0.0960869
-0.096292
-0.0963822
-0.0964857
-0.0965838
-0.0966764
-0.0967683
-0.0968628
-0.0969595
-0.0970571
-0.0971536
-0.0972473
-0.0973364
-0.0974191
-0.0974938
-0.0975588
-0.0976128
-0.0976543
-0.0976821
-0.0976951
-0.0976927
-0.0976744
-0.0976402
-0.0975898
-0.0975234
-0.0974411
-0.0973435
-0.0972311
-0.0971044
-0.0969634
-0.0968081
-0.0966375
-0.0964502
-0.0962442
-0.0960204
-0.0957806
-0.0955269
-0.0952628
-0.0949903
-0.0947085
-0.0944105
-0.0940857
-0.0937127
-0.0932495
-0.0926052
-0.0916888
-0.0903823
-0.0885762
-0.086143
-0.0829681
-0.0789586
-0.0740561
-0.0682386
-0.0615303
-0.0539959
-0.045744
-0.0369171
-0.0276876
-0.0182507
-0.00881418
0.000415366
0.00924751
0.0175051
0.0250424
0.0317375
0.0375092
0.0423032
0.0461081
0.0489336
0.0508268
0.0518427
0.0520651
0.0515719
0.0504622
0.0488169
0.046734
0.0442837
0.0415528
0.0385941
0.0354785
0.0322384
0.028929
0.0255627
0.0221812
0.0187788
0.0153869
0.0119839
0.00859429
0.00518279
0.00177424
-0.0969203
-0.0969421
-0.0968398
-0.0967938
-0.0968035
-0.0968606
-0.0969478
-0.097048
-0.0971503
-0.0972514
-0.0973493
-0.0974424
-0.097529
-0.0976078
-0.0976773
-0.0977361
-0.0977833
-0.0978173
-0.0978369
-0.0978414
-0.0978302
-0.0978033
-0.0977606
-0.0977024
-0.0976288
-0.0975398
-0.0974364
-0.0973194
-0.097189
-0.0970453
-0.0968879
-0.0967158
-0.0965269
-0.0963174
-0.096093
-0.095855
-0.0956047
-0.0953449
-0.0950778
-0.0948024
-0.0945093
-0.094177
-0.0937774
-0.0932658
-0.0925642
-0.0915775
-0.0901951
-0.0883041
-0.0857878
-0.0825426
-0.0784874
-0.0735762
-0.0677982
-0.0611863
-0.0538139
-0.0457955
-0.0372778
-0.0284339
-0.0194535
-0.0105332
-0.00186514
0.00637362
0.0140249
0.0209585
0.0270719
0.0322988
0.0366022
0.0399809
0.0424566
0.0440808
0.0449149
0.0450401
0.0445351
0.043491
0.0419861
0.0401074
0.037922
0.0355039
0.0329036
0.0301796
0.0273638
0.0244996
0.021602
0.0187011
0.0157975
0.012911
0.0100302
0.00716868
0.0043064
0.00145734
-0.0955889
-0.0962377
-0.0964399
-0.0966962
-0.0969114
-0.0970743
-0.0971961
-0.0972964
-0.0973885
-0.0974759
-0.0975591
-0.0976369
-0.0977082
-0.0977718
-0.0978267
-0.0978717
-0.097906
-0.0979282
-0.0979369
-0.0979312
-0.0979106
-0.0978752
-0.0978248
-0.0977596
-0.0976798
-0.0975846
-0.0974769
-0.0973572
-0.0972252
-0.0970805
-0.0969227
-0.0967508
-0.0965629
-0.0963551
-0.0961234
-0.0958726
-0.0956063
-0.0953252
-0.0950276
-0.0947083
-0.0943554
-0.0939473
-0.0934493
-0.0928109
-0.0919572
-0.0907971
-0.0892279
-0.0871454
-0.0844499
-0.0810567
-0.0769026
-0.071957
-0.0662238
-0.0597478
-0.052612
-0.0449365
-0.0368685
-0.0285776
-0.0202433
-0.0120468
-0.00415828
0.00326911
0.0101041
0.0162402
0.0215996
0.0261357
0.0298314
0.0326977
0.0347677
0.036095
0.036744
0.03679
0.0363085
0.0353792
0.0340746
0.0324677
0.0306195
0.0285899
0.026425
0.0241696
0.0218546
0.0195109
0.0171552
0.0148066
0.0124708
0.0101578
0.00786444
0.00559561
0.00334348
0.00111405
-0.100307
-0.0989268
-0.0982981
-0.0978644
-0.0976376
-0.0975479
-0.0975354
-0.0975589
-0.0975965
-0.0976409
-0.0976888
-0.0977373
-0.0977843
-0.0978282
-0.0978671
-0.0978991
-0.0979231
-0.0979356
-0.0979352
-0.097922
-0.0978958
-0.0978567
-0.097804
-0.0977373
-0.0976565
-0.0975599
-0.0974449
-0.0973152
-0.0971721
-0.0970138
-0.0968383
-0.0966432
-0.0964257
-0.0961832
-0.0959135
-0.0956167
-0.0952924
-0.0949383
-0.0945493
-0.0941158
-0.0936215
-0.0930407
-0.0923351
-0.0914529
-0.0903257
-0.088873
-0.0870061
-0.0846378
-0.0816888
-0.0780982
-0.0738261
-0.068861
-0.0632238
-0.056971
-0.0501914
-0.0430048
-0.0355531
-0.0279948
-0.0204913
-0.0132021
-0.00627135
0.000177858
0.00604809
0.0112623
0.015771
0.0195492
0.0225983
0.0249388
0.0266105
0.0276648
0.0281631
0.0281708
0.0277565
0.0269863
0.0259248
0.0246301
0.023156
0.0215481
0.0198474
0.018086
0.0162927
0.0144876
0.0126883
0.0109048
0.00914648
0.00741551
0.00571587
0.00404452
0.00240214
0.000784167
-0.0944576
-0.0955508
-0.09639
-0.0970025
-0.097319
-0.0974366
-0.0974699
-0.0974815
-0.0974961
-0.0975249
-0.097563
-0.0976032
-0.0976431
-0.0976815
-0.0977169
-0.0977473
-0.0977723
-0.0977912
-0.0977973
-0.097787
-0.0977593
-0.097715
-0.0976554
-0.0975788
-0.0974829
-0.0973657
-0.0972262
-0.0970645
-0.0968802
-0.0966715
-0.0964356
-0.0961693
-0.095869
-0.0955309
-0.0951512
-0.0947265
-0.0942532
-0.0937262
-0.0931369
-0.0924725
-0.0917136
-0.0908335
-0.0897966
-0.0885559
-0.0870542
-0.085227
-0.0830059
-0.0803258
-0.0771295
-0.0733749
-0.0690429
-0.064143
-0.0587129
-0.052819
-0.0465526
-0.0400276
-0.0333715
-0.0267212
-0.0202098
-0.0139643
-0.00809461
-0.00269565
0.00216462
0.00643785
0.0101006
0.0131454
0.0155859
0.0174466
0.0187683
0.0195952
0.0199825
0.0199833
0.0196578
0.0190594
0.0182451
0.0172597
0.0161503
0.0149495
0.0136934
0.0124027
0.0111044
0.00980814
0.00853346
0.00728092
0.00606489
0.00487887
0.00373473
0.00262068
0.00154762
0.000498597
-0.117165
-0.102227
-0.100298
-0.0988212
-0.0979056
-0.0974763
-0.097301
-0.0972371
-0.0972147
-0.0972151
-0.0972501
-0.0973093
-0.0973729
-0.0974318
-0.0974839
-0.0975281
-0.0975621
-0.0975823
-0.0975829
-0.0975597
-0.0975119
-0.09744
-0.0973432
-0.0972193
-0.097065
-0.0968775
-0.0966545
-0.0963941
-0.0960942
-0.0957525
-0.0953668
-0.0949336
-0.0944491
-0.0939093
-0.0933097
-0.0926459
-0.0919128
-0.0911041
-0.0902105
-0.0892189
-0.0881103
-0.086858
-0.0854281
-0.0837822
-0.0818772
-0.0796673
-0.077107
-0.0741553
-0.0707806
-0.0669661
-0.0627136
-0.0580466
-0.0530092
-0.0476659
-0.042098
-0.0364019
-0.0306826
-0.0250488
-0.0196034
-0.0144411
-0.00964075
-0.00526908
-0.00137072
0.00202786
0.00491995
0.00730733
0.00920848
0.0106476
0.0116634
0.0122935
0.0125862
0.0125845
0.0123409
0.0118984
0.0113073
0.0106019
0.00982325
0.0089929
0.00814239
0.00728139
0.00643457
0.0056016
0.00480352
0.0040316
0.00330597
0.00261018
0.00196553
0.00134834
0.000782906
0.000235547
-0.0846779
-0.0911522
-0.0936612
-0.0944995
-0.0949407
-0.0953359
-0.0957009
-0.0960064
-0.0962701
-0.0964993
-0.0966954
-0.0968606
-0.0969982
-0.0971116
-0.0972026
-0.0972709
-0.0973134
-0.0973255
-0.0973024
-0.0972398
-0.0971352
-0.0969871
-0.0967941
-0.0965543
-0.0962657
-0.095926
-0.0955335
-0.0950864
-0.0945828
-0.0940203
-0.093395
-0.0927031
-0.0919412
-0.0911063
-0.0901948
-0.0892029
-0.0881257
-0.0869571
-0.0856889
-0.0843097
-0.0828044
-0.0811535
-0.0793338
-0.0773193
-0.0750826
-0.0725957
-0.0698331
-0.0667742
-0.0634064
-0.0597283
-0.0557514
-0.051502
-0.0470206
-0.0423601
-0.0375852
-0.032772
-0.0280023
-0.02336
-0.0189247
-0.0147683
-0.0109476
-0.00750458
-0.00446333
-0.00183613
0.000378412
0.0021873
0.00361027
0.00467176
0.00540848
0.00585531
0.00605562
0.00604612
0.00587214
0.00556809
0.00517646
0.00472321
0.00424313
0.00374945
0.00326796
0.00279875
0.00236204
0.00194776
0.00157653
0.00123116
0.000936905
0.000667465
0.000453809
0.000257786
0.000119435
-1.38772e-05
-0.0786799
-0.0864626
-0.0904485
-0.0918747
-0.0923073
-0.0926397
-0.0931305
-0.0937373
-0.0943459
-0.0948815
-0.0953225
-0.0956781
-0.0959664
-0.0962018
-0.0963908
-0.0965335
-0.0966252
-0.0966598
-0.0966312
-0.0965343
-0.0963657
-0.0961233
-0.0958063
-0.0954142
-0.094947
-0.0944045
-0.0937867
-0.0930936
-0.0923248
-0.0914796
-0.0905567
-0.0895547
-0.0884725
-0.0873086
-0.0860613
-0.0847283
-0.0833066
-0.0817921
-0.0801795
-0.0784614
-0.0766289
-0.0746704
-0.0725726
-0.0703204
-0.0678974
-0.0652877
-0.0624781
-0.0594599
-0.0562303
-0.0527943
-0.0491667
-0.0453729
-0.0414496
-0.0374443
-0.0334118
-0.0294107
-0.0255014
-0.0217453
-0.0182014
-0.0149214
-0.0119451
-0.00929974
-0.00700009
-0.00504933
-0.00343617
-0.00214314
-0.00114697
-0.000422135
6.51195e-05
0.000349378
0.000472073
0.000468969
0.000378071
0.000225057
3.93462e-05
-0.000162205
-0.00035453
-0.000530126
-0.000671355
-0.00078397
-0.000855577
-0.000902434
-0.000909313
-0.000897506
-0.00084151
-0.000772321
-0.000652957
-0.000531002
-0.000351974
-0.000186796
-0.0684368
-0.0756404
-0.0809842
-0.0844632
-0.0865924
-0.0880332
-0.0892343
-0.0903738
-0.0914637
-0.0924582
-0.0933201
-0.09404
-0.0946283
-0.0951018
-0.0954737
-0.09575
-0.0959309
-0.096013
-0.0959924
-0.0958654
-0.0956301
-0.095286
-0.0948341
-0.0942764
-0.0936157
-0.0928548
-0.0919966
-0.0910438
-0.0899991
-0.0888646
-0.0876421
-0.0863327
-0.0849372
-0.0834561
-0.0818892
-0.0802362
-0.0784959
-0.0766669
-0.0747468
-0.0727326
-0.0706204
-0.0684056
-0.0660831
-0.063647
-0.0610921
-0.058413
-0.0556056
-0.0526682
-0.0496027
-0.0464165
-0.0431234
-0.0397463
-0.036318
-0.0328814
-0.0294861
-0.0261838
-0.0230238
-0.0200489
-0.0172926
-0.0147806
-0.0125339
-0.0105722
-0.00891077
-0.00754866
-0.00646072
-0.0056088
-0.00495755
-0.00448125
-0.00415622
-0.00395445
-0.00383735
-0.00376763
-0.00371484
-0.00366537
-0.00361001
-0.00354605
-0.00346371
-0.00336034
-0.00322668
-0.00306736
-0.00287611
-0.00266402
-0.00242165
-0.00216642
-0.00188154
-0.00159288
-0.00126898
-0.000952082
-0.00058609
-0.000248534
-0.0631755
-0.0697937
-0.075261
-0.0794709
-0.0825465
-0.0847991
-0.0865704
-0.0880995
-0.0894944
-0.0907724
-0.0919136
-0.0928977
-0.0937184
-0.0943812
-0.094896
-0.0952706
-0.0955082
-0.0956084
-0.0955691
-0.0953882
-0.0950652
-0.0946011
-0.0939988
-0.0932627
-0.0923979
-0.0914102
-0.0903055
-0.0890895
-0.087768
-0.0863459
-0.0848276
-0.0832167
-0.0815158
-0.0797271
-0.0778522
-0.0758924
-0.0738489
-0.0717229
-0.0695154
-0.0672277
-0.0648611
-0.0624171
-0.0598977
-0.0573055
-0.054644
-0.0519165
-0.0491269
-0.0462796
-0.0433805
-0.0404369
-0.03746
-0.0344666
-0.0314828
-0.0285467
-0.0257078
-0.023021
-0.0205334
-0.0182726
-0.0162407
-0.0144219
-0.012805
-0.0114037
-0.0102459
-0.0093388
-0.0086474
-0.00810458
-0.0076503
-0.00726271
-0.0069446
-0.00669417
-0.00648816
-0.00629246
-0.00607852
-0.00583405
-0.00555939
-0.00526534
-0.00496084
-0.00465291
-0.00433997
-0.00402228
-0.00369427
-0.00335825
-0.00300861
-0.00265204
-0.00227988
-0.00190404
-0.00150682
-0.00111096
-0.00067834
-0.000263252
-0.0586321
-0.0648979
-0.0703532
-0.074901
-0.0785468
-0.0814237
-0.0837426
-0.085704
-0.0874409
-0.0890122
-0.0904253
-0.091667
-0.0927236
-0.0935899
-0.0942677
-0.0947615
-0.0950747
-0.0952086
-0.095163
-0.094938
-0.0945351
-0.0939578
-0.0932114
-0.0923028
-0.0912398
-0.090031
-0.0886852
-0.0872116
-0.0856191
-0.083916
-0.0821094
-0.0802053
-0.0782084
-0.0761227
-0.0739517
-0.0716985
-0.0693667
-0.0669605
-0.0644848
-0.0619451
-0.0593482
-0.0567013
-0.0540128
-0.0512925
-0.0485512
-0.0458009
-0.0430539
-0.0403219
-0.0376143
-0.0349385
-0.0323009
-0.0297087
-0.0271744
-0.0247215
-0.0223945
-0.0202545
-0.0183586
-0.0167297
-0.0153323
-0.0140948
-0.0129652
-0.0119509
-0.0110979
-0.0104349
-0.00993929
-0.00953157
-0.00912624
-0.00869325
-0.00825645
-0.00784828
-0.00747855
-0.0071355
-0.00680646
-0.00647836
-0.00613902
-0.00578511
-0.00541981
-0.00504866
-0.0046739
-0.00429732
-0.00391781
-0.0035365
-0.00315088
-0.00276267
-0.00236772
-0.00196938
-0.00155924
-0.00114407
-0.00070271
-0.000261994
-0.0550317
-0.0610921
-0.0665247
-0.0712513
-0.0752482
-0.078569
-0.0813354
-0.0836934
-0.0857644
-0.0876203
-0.0892875
-0.0907634
-0.092035
-0.0930907
-0.0939244
-0.0945346
-0.0949217
-0.0950862
-0.0950287
-0.094751
-0.0942573
-0.093555
-0.0926534
-0.0915628
-0.0902943
-0.0888591
-0.0872692
-0.0855369
-0.0836742
-0.0816923
-0.0796014
-0.0774102
-0.0751258
-0.0727546
-0.0703019
-0.0677733
-0.065175
-0.0625142
-0.0598001
-0.0570435
-0.0542569
-0.0514542
-0.0486497
-0.0458578
-0.0430945
-0.0403796
-0.0377346
-0.0351773
-0.0327177
-0.0303593
-0.0281011
-0.0259397
-0.0238706
-0.0218914
-0.0200266
-0.0183305
-0.0168697
-0.0156843
-0.0147175
-0.0138646
-0.0130509
-0.0122703
-0.0115496
-0.0109053
-0.0103684
-0.00991777
-0.00949745
-0.00908244
-0.00868677
-0.00829558
-0.00789517
-0.00748372
-0.00706312
-0.00663896
-0.00622062
-0.00581468
-0.00542139
-0.00503839
-0.00466273
-0.00429037
-0.00391704
-0.00354057
-0.00315918
-0.00277257
-0.00237899
-0.00197913
-0.00156925
-0.00114949
-0.000711683
-0.00026611
-0.0521385
-0.0580926
-0.0635138
-0.0683361
-0.0725392
-0.0761556
-0.0792621
-0.0819577
-0.0843361
-0.0864641
-0.0883747
-0.0900736
-0.0915502
-0.0927894
-0.0937782
-0.0945082
-0.0949745
-0.0951747
-0.0951086
-0.0947783
-0.0941906
-0.0933576
-0.0922947
-0.0910178
-0.0895419
-0.0878821
-0.0860536
-0.084072
-0.0819526
-0.0797099
-0.0773573
-0.0749064
-0.0723672
-0.0697482
-0.0670576
-0.0643033
-0.0614943
-0.058641
-0.0557568
-0.0528576
-0.049963
-0.0470941
-0.0442724
-0.0415147
-0.0388333
-0.0362515
-0.0337954
-0.0314814
-0.0293112
-0.0272753
-0.0253637
-0.0235666
-0.0218768
-0.0202996
-0.0188334
-0.0174941
-0.0163192
-0.0153101
-0.0144458
-0.0136896
-0.0130115
-0.0124123
-0.0118983
-0.0114356
-0.0109363
-0.0103666
-0.00975691
-0.00917569
-0.00864933
-0.00818283
-0.00776822
-0.00737968
-0.006997
-0.00661181
-0.00622288
-0.00583188
-0.0054435
-0.00506
-0.00468
-0.00430155
-0.00392258
-0.00354158
-0.00315656
-0.00276676
-0.00237122
-0.00196933
-0.00155878
-0.00113891
-0.000708766
-0.00026165
-0.0497605
-0.0556887
-0.0611112
-0.0659837
-0.0703067
-0.0741187
-0.0774797
-0.0804576
-0.0831163
-0.0855065
-0.0876577
-0.0895778
-0.0912583
-0.0926818
-0.0938298
-0.0946867
-0.0952414
-0.0954873
-0.0954224
-0.0950493
-0.0943763
-0.0934192
-0.0922006
-0.0907434
-0.08907
-0.0872021
-0.0851609
-0.0829665
-0.0806379
-0.0781928
-0.0756464
-0.0730124
-0.0703023
-0.0675263
-0.0646939
-0.0618147
-0.0588993
-0.05596
-0.0530122
-0.0500746
-0.0471705
-0.0443263
-0.0415709
-0.0389267
-0.0364086
-0.0340367
-0.0318249
-0.0297713
-0.0278605
-0.0260649
-0.0243512
-0.0227152
-0.0211833
-0.0198014
-0.0186154
-0.0176467
-0.0168571
-0.0160998
-0.0152633
-0.0143331
-0.0133775
-0.0125198
-0.0118045
-0.0112164
-0.0107015
-0.0102059
-0.00970475
-0.00920796
-0.00872962
-0.00828424
-0.00786284
-0.00745294
-0.00704702
-0.00664308
-0.00624274
-0.00584765
-0.00545731
-0.00507136
-0.00468867
-0.00430744
-0.00392575
-0.00354199
-0.00315474
-0.00276293
-0.00236554
-0.00196133
-0.00154879
-0.00112907
-0.000704177
-0.000255885
-0.0482393
-0.0541324
-0.0595199
-0.0643936
-0.0687778
-0.0727133
-0.0762509
-0.0794401
-0.0823236
-0.0849358
-0.0872974
-0.0894123
-0.0912711
-0.0928556
-0.0941437
-0.0951142
-0.09575
-0.0960397
-0.0959795
-0.0955734
-0.0948331
-0.0937759
-0.0924241
-0.090807
-0.0889575
-0.0869083
-0.0846902
-0.0823306
-0.0798533
-0.0772785
-0.0746227
-0.0718997
-0.0691204
-0.0662944
-0.0634302
-0.0605363
-0.0576221
-0.0546989
-0.0517807
-0.0488855
-0.0460362
-0.0432606
-0.0405929
-0.0380692
-0.0357283
-0.0335918
-0.0316591
-0.0299029
-0.028275
-0.0267219
-0.0251629
-0.0235725
-0.021965
-0.0204005
-0.0189622
-0.017726
-0.0166819
-0.015776
-0.0149378
-0.0141274
-0.0133473
-0.0126236
-0.0119789
-0.0114055
-0.0108621
-0.0103239
-0.00978783
-0.00926772
-0.00877613
-0.00831503
-0.00788024
-0.00746333
-0.00705656
-0.00665528
-0.0062577
-0.0058637
-0.00547353
-0.00508682
-0.00470256
-0.00431928
-0.00393543
-0.00354952
-0.0031602
-0.00276635
-0.00236686
-0.00196049
-0.00154634
-0.00112618
-0.000701827
-0.000253324
-0.047331
-0.0532416
-0.0586295
-0.0635213
-0.0679567
-0.0719792
-0.0756333
-0.0789633
-0.082007
-0.0847876
-0.0873135
-0.0895808
-0.091576
-0.0932789
-0.094667
-0.0957183
-0.096415
-0.0967456
-0.0967069
-0.0963047
-0.0955538
-0.0944767
-0.0931017
-0.0914609
-0.0895879
-0.0875163
-0.0852777
-0.0829009
-0.0804108
-0.0778283
-0.0751707
-0.0724519
-0.069683
-0.0668734
-0.0640312
-0.0611642
-0.0582807
-0.0553904
-0.0525053
-0.0496406
-0.0468153
-0.0440528
-0.0413806
-0.0388282
-0.0364219
-0.0341799
-0.0321057
-0.0301882
-0.0284062
-0.0267399
-0.0250812
-0.0234584
-0.0218842
-0.0204065
-0.0190816
-0.0179336
-0.0169469
-0.0160472
-0.0151724
-0.0143063
-0.0134702
-0.0127044
-0.0120264
-0.0114212
-0.0108592
-0.0103176
-0.0097907
-0.00928399
-0.00880265
-0.00834743
-0.00791307
-0.00749299
-0.00708218
-0.00667793
-0.00627915
-0.00588534
-0.00549589
-0.00510993
-0.0047262
-0.00434323
-0.00395948
-0.0035735
-0.00318396
-0.00278965
-0.00238944
-0.00198221
-0.00156707
-0.00114423
-0.000713363
-0.000258655
)
;

boundaryField
{
    fixedWalls
    {
        type            zeroGradient;
    }
    inflowWall
    {
        type            zeroGradient;
    }
    outflowWall
    {
        type            fixedValue;
        value           uniform 0;
    }
    frontAndBack
    {
        type            empty;
    }
}


// ************************************************************************* //
