/*--------------------------------*- C++ -*----------------------------------*\
| =========                 |                                                 |
| \\      /  F ield         | OpenFOAM: The Open Source CFD Toolbox           |
|  \\    /   O peration     | Version:  2306                                  |
|   \\  /    A nd           | Website:  www.openfoam.com                      |
|    \\/     M anipulation  |                                                 |
\*---------------------------------------------------------------------------*/
FoamFile
{
    version     2.0;
    format      ascii;
    arch        "LSB;label=32;scalar=64";
    class       volScalarField;
    location    "8.7";
    object      p;
}
// * * * * * * * * * * * * * * * * * * * * * * * * * * * * * * * * * * * * * //

dimensions      [0 2 -2 0 0 0 0];

internalField   nonuniform List<scalar> 
1900
(
0.0530267
0.0288095
0.00842144
-0.00691283
-0.0179246
-0.0284666
-0.0388907
-0.0510299
-0.0635517
-0.0775608
0.0237654
0.0155682
0.00425608
-0.00729113
-0.0183076
-0.0284847
-0.0389028
-0.0493976
-0.0608717
-0.0719057
0.0146674
0.010178
0.00266533
-0.00669854
-0.0167764
-0.0267482
-0.036519
-0.0460619
-0.0554776
-0.0645478
0.00896089
0.00588832
0.000240283
-0.00740535
-0.0162532
-0.0254889
-0.0346745
-0.0435823
-0.0521683
-0.0603232
0.00673009
0.00419494
-0.000543279
-0.00719075
-0.0151687
-0.0237712
-0.032445
-0.0408679
-0.0488923
-0.0564298
0.00735764
0.00487646
0.000264899
-0.00620144
-0.0139418
-0.022248
-0.0305617
-0.0385664
-0.0461385
-0.0532497
0.0108069
0.00785989
0.00257685
-0.00450922
-0.0125737
-0.0208663
-0.0289219
-0.0365636
-0.0437836
-0.0506174
0.0175005
0.0132037
0.00630316
-0.00217007
-0.0109962
-0.0194289
-0.027273
-0.0346225
-0.0416275
-0.0483506
0.0276367
0.0195359
0.00909651
-0.00136982
-0.0106845
-0.0188062
-0.026188
-0.0332531
-0.0401656
-0.046886
0.056485
0.0338106
0.0140998
3.09908e-05
-0.00963473
-0.0173409
-0.0245843
-0.0318204
-0.0389998
-0.0459176
-0.100688
-0.100721
-0.100766
-0.10082
-0.10088
-0.100946
-0.101017
-0.101093
-0.10117
-0.101249
-0.101328
-0.101403
-0.101475
-0.10154
-0.101597
-0.101644
-0.10168
-0.101702
-0.10171
-0.101701
-0.101675
-0.10163
-0.101566
-0.101481
-0.101374
-0.101245
-0.101094
-0.100919
-0.100721
-0.100499
-0.100251
-0.0999788
-0.0996803
-0.0993549
-0.0990016
-0.098619
-0.0982053
-0.0977583
-0.0972749
-0.0967512
-0.096182
-0.0955603
-0.0948773
-0.0941214
-0.0932777
-0.0923277
-0.0912494
-0.0900171
-0.0886018
-0.0869722
-0.0850937
-0.0829292
-0.0804392
-0.0775821
-0.0743136
-0.0705901
-0.0663773
-0.0616529
-0.0563991
-0.050624
-0.0443652
-0.0376728
-0.0306191
-0.0233007
-0.0158304
-0.00833399
-0.000942231
0.00621449
0.0130049
0.0193205
0.0250451
0.0301126
0.0344386
0.0380056
0.0407588
0.0427244
0.0438828
0.0442895
0.0439429
0.0429244
0.0412351
0.0389716
0.0361235
0.0327966
0.0289512
0.0247067
0.0199642
0.0148862
0.00924703
0.00336311
-0.100683
-0.100714
-0.100742
-0.100783
-0.100834
-0.100893
-0.100959
-0.10103
-0.101104
-0.101179
-0.101255
-0.101328
-0.101398
-0.101462
-0.101518
-0.101564
-0.101599
-0.101622
-0.101629
-0.101621
-0.101595
-0.101551
-0.101486
-0.101402
-0.101295
-0.101166
-0.101015
-0.100839
-0.10064
-0.100415
-0.100166
-0.0998906
-0.0995885
-0.0992587
-0.0989001
-0.0985112
-0.0980901
-0.0976345
-0.0971413
-0.0966065
-0.0960251
-0.0953906
-0.0946947
-0.0939271
-0.093075
-0.0921224
-0.09105
-0.0898347
-0.0884507
-0.0868689
-0.0850554
-0.0829717
-0.0805742
-0.0778161
-0.0746467
-0.071014
-0.0668784
-0.0622336
-0.0570656
-0.0513741
-0.0451748
-0.0385234
-0.0314944
-0.0241874
-0.0167164
-0.00920921
-0.00180285
0.00537299
0.0121739
0.0185149
0.0242452
0.0293264
0.0336569
0.0372313
0.039989
0.0419627
0.0431236
0.0435411
0.0431993
0.0421977
0.0405176
0.0382802
0.0354478
0.032158
0.0283373
0.02414
0.0194407
0.0144192
0.00890019
0.00313815
-0.100565
-0.100647
-0.100692
-0.100746
-0.100802
-0.100863
-0.10093
-0.101003
-0.10108
-0.101158
-0.101237
-0.101314
-0.101387
-0.101454
-0.101514
-0.101564
-0.101603
-0.101629
-0.10164
-0.101634
-0.101611
-0.101569
-0.101506
-0.101423
-0.101317
-0.101189
-0.101037
-0.100861
-0.100661
-0.100436
-0.100186
-0.0999093
-0.0996066
-0.0992766
-0.0989181
-0.0985298
-0.0981103
-0.0976572
-0.0971677
-0.0966379
-0.0960627
-0.0954355
-0.0947485
-0.0939924
-0.0931563
-0.092227
-0.0911875
-0.090017
-0.0886905
-0.0871809
-0.0854543
-0.083468
-0.0811708
-0.078515
-0.075456
-0.0719383
-0.0679048
-0.0633138
-0.0581632
-0.05247
-0.0462625
-0.0396022
-0.0325616
-0.0252374
-0.0177603
-0.0102559
-0.00286594
0.00429721
0.0110794
0.0173932
0.0230996
0.0281509
0.032451
0.0359938
0.0387215
0.040669
0.0418087
0.0422129
0.0418678
0.0408731
0.039215
0.0370106
0.0342325
0.0310073
0.0272828
0.0231911
0.0186496
0.0137998
0.00853809
0.00303092
-0.100647
-0.100721
-0.100725
-0.100751
-0.100797
-0.100859
-0.100932
-0.101013
-0.101098
-0.101185
-0.101273
-0.101358
-0.101438
-0.101513
-0.101579
-0.101634
-0.101677
-0.101707
-0.101721
-0.101717
-0.101695
-0.101654
-0.101592
-0.101508
-0.101401
-0.101271
-0.101117
-0.100939
-0.100736
-0.100508
-0.100254
-0.0999752
-0.0996699
-0.0993379
-0.0989782
-0.0985894
-0.0981705
-0.0977196
-0.0972339
-0.0967101
-0.096143
-0.0955259
-0.094851
-0.0941108
-0.0932963
-0.0923959
-0.0913936
-0.0902694
-0.0889967
-0.087552
-0.0859008
-0.0839975
-0.0817849
-0.0792047
-0.076193
-0.0727111
-0.0687091
-0.0641518
-0.0590312
-0.0533658
-0.0471851
-0.040555
-0.0335552
-0.0262881
-0.0188814
-0.0114601
-0.00416811
0.00287825
0.00953542
0.01571
0.0212812
0.0261936
0.0303658
0.0337863
0.036411
0.0382698
0.0393477
0.0397096
0.0393565
0.0383763
0.0367722
0.0346444
0.0319872
0.0289049
0.0253752
0.0215029
0.0172463
0.0127123
0.00784055
0.00274681
-0.100324
-0.100529
-0.100619
-0.100723
-0.100822
-0.100915
-0.101007
-0.101102
-0.101199
-0.101297
-0.101393
-0.101485
-0.101572
-0.101651
-0.101721
-0.101779
-0.101824
-0.101854
-0.101867
-0.101863
-0.101839
-0.101795
-0.101729
-0.101641
-0.101531
-0.101396
-0.101238
-0.101054
-0.100847
-0.100614
-0.100357
-0.100074
-0.0997667
-0.0994336
-0.0990737
-0.0986855
-0.0982683
-0.0978208
-0.0973403
-0.0968235
-0.0962651
-0.0956581
-0.0949944
-0.0942695
-0.0934754
-0.0925992
-0.0916239
-0.0905339
-0.089295
-0.0878752
-0.0862371
-0.0843428
-0.0821326
-0.0795549
-0.0765461
-0.0730634
-0.0690575
-0.0645073
-0.0594046
-0.0537732
-0.0476504
-0.0411043
-0.0342195
-0.0271014
-0.0198724
-0.0126587
-0.00559609
0.00119559
0.00758975
0.0134897
0.018795
0.0234465
0.0273811
0.0305834
0.0330271
0.034736
0.0357121
0.0360105
0.035649
0.0347013
0.033189
0.0311939
0.0287312
0.0258837
0.0226545
0.0191249
0.0152834
0.0112117
0.0068853
0.00239448
-0.101155
-0.101177
-0.101077
-0.101032
-0.101042
-0.1011
-0.101188
-0.101288
-0.101391
-0.101492
-0.101589
-0.101682
-0.101766
-0.101842
-0.101907
-0.10196
-0.101999
-0.102023
-0.102029
-0.102018
-0.101988
-0.101936
-0.101864
-0.10177
-0.101653
-0.101512
-0.101348
-0.10116
-0.100948
-0.100711
-0.10045
-0.100165
-0.0998559
-0.0995217
-0.099161
-0.0987723
-0.0983576
-0.0979145
-0.0974394
-0.0969287
-0.0963773
-0.0957791
-0.095124
-0.0944013
-0.0936029
-0.0927195
-0.0917324
-0.0906221
-0.0893576
-0.0879092
-0.0862349
-0.0842942
-0.0820304
-0.0793947
-0.0763298
-0.0727966
-0.0687574
-0.0641986
-0.0591189
-0.0535472
-0.0475281
-0.0411341
-0.0344522
-0.0275897
-0.0206624
-0.0137944
-0.00710836
-0.000720504
0.00526068
0.010743
0.0156457
0.0199129
0.0235006
0.0263939
0.0285844
0.030093
0.0309376
0.0311648
0.0308074
0.0299259
0.0285563
0.0267636
0.0245787
0.0220651
0.0192441
0.016176
0.0128714
0.00939015
0.00573396
0.00196706
-0.0998343
-0.100478
-0.10068
-0.100936
-0.10115
-0.101313
-0.101434
-0.101535
-0.101628
-0.101715
-0.101799
-0.101876
-0.101946
-0.102008
-0.102059
-0.102099
-0.102125
-0.102138
-0.102135
-0.102115
-0.102076
-0.102017
-0.101938
-0.101838
-0.101715
-0.10157
-0.101401
-0.101209
-0.100993
-0.100755
-0.100493
-0.100207
-0.0998973
-0.0995636
-0.0992041
-0.0988153
-0.0983937
-0.0979417
-0.0974563
-0.0969327
-0.0963642
-0.0957439
-0.0950622
-0.0943102
-0.093476
-0.0925475
-0.0915043
-0.0903256
-0.0889806
-0.0874382
-0.0856571
-0.083598
-0.0812119
-0.0784556
-0.0752833
-0.0716637
-0.0675711
-0.0630015
-0.0579636
-0.0524934
-0.0466418
-0.0404851
-0.0341104
-0.0276237
-0.0211329
-0.0147545
-0.00859583
-0.00276143
0.00266077
0.00759067
0.0119682
0.0157466
0.0189011
0.0214214
0.0233151
0.024602
0.0253127
0.0254863
0.0251658
0.0243989
0.0232311
0.0217111
0.0198801
0.0177831
0.0154539
0.0129327
0.0102453
0.00742988
0.00450612
0.00151406
-0.10454
-0.103161
-0.102532
-0.102098
-0.101871
-0.101782
-0.101769
-0.101794
-0.101833
-0.101879
-0.101928
-0.101977
-0.102024
-0.102066
-0.102102
-0.102129
-0.102146
-0.102151
-0.10214
-0.102112
-0.102066
-0.102002
-0.101919
-0.101816
-0.101692
-0.101546
-0.101377
-0.101181
-0.100959
-0.100714
-0.100444
-0.100148
-0.099825
-0.0994745
-0.0990942
-0.0986818
-0.0982348
-0.0977515
-0.0972278
-0.0966584
-0.0960357
-0.095352
-0.0945968
-0.0937594
-0.0928262
-0.0917828
-0.0906096
-0.0892846
-0.0877793
-0.0860633
-0.0841005
-0.0818554
-0.0792886
-0.0763661
-0.073056
-0.0693386
-0.0652021
-0.0606534
-0.0557117
-0.0504195
-0.0448312
-0.0390235
-0.0330795
-0.0270988
-0.0211779
-0.0154213
-0.00991888
-0.00475903
-6.51615e-06
0.00427573
0.00804944
0.0112807
0.0139624
0.0160901
0.0176839
0.0187615
0.0193619
0.0195156
0.0192709
0.0186627
0.0177415
0.0165402
0.015106
0.0134665
0.0116637
0.00971871
0.00766822
0.00552872
0.00333135
0.00108925
-0.0987064
-0.0997869
-0.100622
-0.101233
-0.10155
-0.101669
-0.101704
-0.101718
-0.101734
-0.101764
-0.101802
-0.101842
-0.101882
-0.10192
-0.101952
-0.101977
-0.101994
-0.102002
-0.102
-0.101981
-0.10194
-0.101878
-0.101794
-0.101686
-0.101555
-0.101398
-0.101215
-0.101005
-0.100766
-0.100497
-0.100197
-0.0998653
-0.0995002
-0.0991002
-0.0986629
-0.0981853
-0.0976639
-0.0970947
-0.0964729
-0.0957925
-0.0950458
-0.0942238
-0.0933158
-0.09231
-0.0911927
-0.0899493
-0.0885622
-0.0870111
-0.085272
-0.0833193
-0.0811248
-0.0786607
-0.0758995
-0.0728176
-0.0693951
-0.0656229
-0.0615024
-0.0570518
-0.0522998
-0.0472935
-0.0420883
-0.0367567
-0.0313734
-0.0260255
-0.0207927
-0.0157609
-0.0109988
-0.0065767
-0.00254041
0.0010647
0.00422081
0.00690665
0.00912936
0.0108881
0.012211
0.0131117
0.0136332
0.0137966
0.0136526
0.0132232
0.0125616
0.0116856
0.0106475
0.00945745
0.00816464
0.00677097
0.00532297
0.00381495
0.00229018
0.000733093
-0.121346
-0.106452
-0.104527
-0.103051
-0.102136
-0.101707
-0.101532
-0.101472
-0.101456
-0.101461
-0.101502
-0.101562
-0.101626
-0.101687
-0.101743
-0.101791
-0.101828
-0.101851
-0.101856
-0.101837
-0.101792
-0.101718
-0.101614
-0.101478
-0.101311
-0.10111
-0.100878
-0.100613
-0.10031
-0.0999676
-0.0995843
-0.0991581
-0.0986874
-0.0981707
-0.0976052
-0.0969879
-0.0963148
-0.0955814
-0.0947825
-0.0939122
-0.092963
-0.0919265
-0.0907929
-0.0895513
-0.0881891
-0.0866919
-0.0850435
-0.0832276
-0.0812261
-0.0790208
-0.0765927
-0.0739243
-0.0709999
-0.0678084
-0.0643437
-0.060609
-0.0566161
-0.0523893
-0.047961
-0.0433761
-0.0386849
-0.0339491
-0.0292306
-0.0245998
-0.0201186
-0.0158529
-0.011852
-0.0081678
-0.00483041
-0.00187068
0.000708105
0.00289439
0.00470372
0.0061369
0.00722531
0.0079789
0.00844155
0.00862662
0.00858542
0.0083289
0.00791233
0.00733969
0.0066678
0.00588985
0.00506309
0.00416764
0.00326216
0.00231347
0.00138313
0.000419992
-0.0889627
-0.0953952
-0.0979015
-0.098751
-0.0992064
-0.0996159
-0.0999954
-0.100315
-0.100593
-0.100834
-0.101042
-0.10122
-0.101372
-0.101503
-0.101613
-0.101702
-0.101768
-0.101805
-0.101809
-0.101776
-0.101702
-0.101585
-0.101424
-0.101217
-0.100964
-0.100667
-0.100324
-0.0999351
-0.099498
-0.0990112
-0.0984729
-0.0978816
-0.0972351
-0.0965307
-0.0957656
-0.094937
-0.0940414
-0.0930747
-0.0920321
-0.0909082
-0.0896966
-0.0883902
-0.086981
-0.08546
-0.0838178
-0.0820439
-0.0801277
-0.0780585
-0.0758257
-0.073419
-0.0708285
-0.0680461
-0.0650659
-0.0618862
-0.0585101
-0.0549471
-0.0512131
-0.0473326
-0.0433358
-0.0392614
-0.0351514
-0.0310549
-0.0270214
-0.023105
-0.0193532
-0.0158149
-0.0125259
-0.00952211
-0.00682029
-0.00443835
-0.00237247
-0.000626374
0.000818727
0.00196675
0.00284885
0.00347447
0.00388584
0.00409289
0.00414491
0.00404609
0.00385047
0.00355156
0.00320798
0.00279774
0.00238516
0.00192725
0.00149662
0.00102423
0.000596895
0.000114228
-0.0831278
-0.090895
-0.0948703
-0.0962921
-0.096729
-0.0970732
-0.0975813
-0.0982094
-0.0988443
-0.099413
-0.0998903
-0.100284
-0.100611
-0.100887
-0.101119
-0.101308
-0.101451
-0.101541
-0.101573
-0.101542
-0.101445
-0.10128
-0.101047
-0.100746
-0.100379
-0.0999463
-0.0994503
-0.0988915
-0.0982704
-0.0975872
-0.0968414
-0.0960324
-0.0951593
-0.0942205
-0.0932141
-0.0921381
-0.0909897
-0.089766
-0.088463
-0.0870766
-0.085602
-0.084034
-0.0823671
-0.0805955
-0.0787133
-0.0767148
-0.074594
-0.0723459
-0.0699653
-0.0674481
-0.064791
-0.0619921
-0.0590517
-0.0559734
-0.0527645
-0.0494371
-0.0460078
-0.0424993
-0.0389395
-0.0353618
-0.031803
-0.0283029
-0.0249006
-0.0216353
-0.0185418
-0.0156534
-0.0129942
-0.0105861
-0.00843877
-0.00656054
-0.00494474
-0.003586
-0.00246322
-0.00156566
-0.000864762
-0.00034794
2.14972e-05
0.000255083
0.000395448
0.000446102
0.00045302
0.000405231
0.000354517
0.000270278
0.000215957
0.000131334
9.85865e-05
1.16178e-05
-1.27007e-05
-0.00014094
-0.0729869
-0.0801575
-0.0855008
-0.0890041
-0.091168
-0.0926457
-0.0938849
-0.0950657
-0.0962013
-0.0972467
-0.0981635
-0.0989414
-0.0995906
-0.100128
-0.100569
-0.100919
-0.10118
-0.10135
-0.101425
-0.101402
-0.10128
-0.101061
-0.100745
-0.100335
-0.0998359
-0.0992507
-0.0985833
-0.0978372
-0.0970153
-0.0961201
-0.0951532
-0.0941159
-0.0930086
-0.091831
-0.0905823
-0.0892612
-0.0878659
-0.0863939
-0.0848426
-0.0832091
-0.0814901
-0.0796826
-0.0777833
-0.0757893
-0.0736981
-0.0715074
-0.0692159
-0.0668229
-0.0643282
-0.061733
-0.0590394
-0.056251
-0.0533731
-0.0504129
-0.0473797
-0.0442856
-0.0411466
-0.037983
-0.03482
-0.0316876
-0.0286185
-0.0256467
-0.022804
-0.0201182
-0.017611
-0.0152993
-0.0131944
-0.0113056
-0.00963762
-0.00819297
-0.00696339
-0.00593511
-0.0050829
-0.0043866
-0.00382023
-0.00336844
-0.00300477
-0.0027158
-0.002471
-0.00226384
-0.00206424
-0.00188089
-0.00168074
-0.0014912
-0.00126541
-0.00106161
-0.000805957
-0.000615902
-0.00035964
-0.000263968
-0.0678404
-0.0744698
-0.0799544
-0.0841914
-0.0873044
-0.0896021
-0.0914246
-0.0930103
-0.0944672
-0.0958129
-0.0970275
-0.0980903
-0.0989947
-0.0997467
-0.100357
-0.100834
-0.101182
-0.101403
-0.101494
-0.101455
-0.101287
-0.100992
-0.100574
-0.100039
-0.099393
-0.0986423
-0.0977936
-0.0968525
-0.0958245
-0.094714
-0.093525
-0.0922603
-0.0909217
-0.08951
-0.0880253
-0.0864669
-0.0848335
-0.0831236
-0.0813354
-0.0794672
-0.0775175
-0.075485
-0.0733687
-0.0711685
-0.0688847
-0.0665187
-0.0640729
-0.0615508
-0.0589572
-0.0562981
-0.0535806
-0.0508131
-0.0480047
-0.0451651
-0.0423045
-0.0394346
-0.0365695
-0.0337262
-0.0309263
-0.0281962
-0.0255662
-0.0230679
-0.0207289
-0.0185682
-0.0165931
-0.0148006
-0.0131833
-0.0117368
-0.0104614
-0.00935898
-0.00842291
-0.00763534
-0.00696678
-0.00638814
-0.005875
-0.00541559
-0.00499837
-0.00461612
-0.00425259
-0.00390038
-0.00354324
-0.00318291
-0.00280507
-0.00242482
-0.00202248
-0.00163447
-0.0012204
-0.000868449
-0.000476188
-0.000272787
-0.0633979
-0.0696882
-0.0751727
-0.0797575
-0.0834511
-0.0863869
-0.088774
-0.0908109
-0.0926299
-0.0942893
-0.0957968
-0.0971391
-0.0983028
-0.0992831
-0.100083
-0.100707
-0.101161
-0.101448
-0.101567
-0.101521
-0.101313
-0.100947
-0.100431
-0.0997726
-0.0989825
-0.0980697
-0.097043
-0.0959107
-0.0946803
-0.0933589
-0.0919524
-0.0904659
-0.0889025
-0.0872644
-0.0855523
-0.0837661
-0.0819054
-0.0799691
-0.0779566
-0.0758672
-0.0737009
-0.0714583
-0.0691409
-0.0667509
-0.0642919
-0.0617685
-0.0591867
-0.0565539
-0.0538794
-0.0511743
-0.0484511
-0.0457228
-0.0430021
-0.0403007
-0.0376291
-0.0349978
-0.0324175
-0.0299001
-0.0274598
-0.0251153
-0.0228926
-0.0208213
-0.0189273
-0.0172242
-0.0157063
-0.0143481
-0.01312
-0.0120039
-0.0109984
-0.0101084
-0.0093334
-0.00866229
-0.00806792
-0.0075167
-0.00698373
-0.00646109
-0.00594923
-0.00545438
-0.00497842
-0.00452198
-0.00407754
-0.0036417
-0.00320317
-0.00276266
-0.00230981
-0.00185818
-0.00139562
-0.000968385
-0.00053537
-0.000262822
-0.059881
-0.065978
-0.0714552
-0.0762357
-0.0802967
-0.0836926
-0.0865443
-0.0889966
-0.0911693
-0.0931338
-0.0949159
-0.0965135
-0.097914
-0.0991065
-0.100086
-0.100853
-0.101409
-0.101757
-0.101897
-0.101835
-0.101574
-0.101124
-0.100495
-0.0997003
-0.0987544
-0.0976698
-0.096458
-0.0951292
-0.0936933
-0.0921595
-0.0905358
-0.0888288
-0.0870436
-0.0851837
-0.0832509
-0.081246
-0.0791692
-0.0770203
-0.0747995
-0.0725074
-0.0701454
-0.0677161
-0.0652233
-0.0626724
-0.06007
-0.0574241
-0.0547439
-0.0520402
-0.0493257
-0.0466163
-0.0439295
-0.0412831
-0.0386921
-0.0361686
-0.0337213
-0.031357
-0.0290814
-0.0268995
-0.0248153
-0.0228338
-0.0209716
-0.0192535
-0.017702
-0.0163298
-0.0151277
-0.0140583
-0.0130794
-0.0121632
-0.0113043
-0.0105054
-0.00976283
-0.00908455
-0.00846807
-0.00789442
-0.00734488
-0.00681592
-0.00629786
-0.00578544
-0.00527883
-0.00477958
-0.00428673
-0.00380022
-0.00331782
-0.00284039
-0.00236395
-0.00189221
-0.00142184
-0.000974993
-0.000544323
-0.00025416
-0.0570639
-0.0630684
-0.0685499
-0.0734429
-0.077727
-0.0814349
-0.0846433
-0.0874508
-0.08995
-0.0922066
-0.0942528
-0.0960937
-0.0977194
-0.0991161
-0.100272
-0.101182
-0.101841
-0.102251
-0.102413
-0.102331
-0.102014
-0.101472
-0.100722
-0.0997824
-0.0986739
-0.0974136
-0.0960157
-0.0944928
-0.0928566
-0.0911184
-0.0892883
-0.0873747
-0.0853846
-0.0833227
-0.0811923
-0.0789952
-0.0767326
-0.0744053
-0.0720147
-0.0695624
-0.0670514
-0.0644862
-0.061873
-0.0592199
-0.0565372
-0.0538365
-0.0511297
-0.0484289
-0.045748
-0.0431055
-0.0405221
-0.0380162
-0.0356013
-0.0332862
-0.0310748
-0.0289678
-0.0269645
-0.0250649
-0.0232697
-0.0215809
-0.0200027
-0.0185459
-0.0172222
-0.0160306
-0.0149562
-0.0139821
-0.0130897
-0.0122598
-0.0114835
-0.0107632
-0.0100895
-0.00943743
-0.00878953
-0.00814286
-0.00750925
-0.00689689
-0.00631451
-0.00576432
-0.00524575
-0.00475156
-0.00427244
-0.0038014
-0.003333
-0.0028652
-0.00239607
-0.00192741
-0.00146176
-0.00101156
-0.000593077
-0.000250412
-0.0547532
-0.0607446
-0.0662419
-0.0712011
-0.0756224
-0.079543
-0.0830233
-0.0861304
-0.088928
-0.0914658
-0.0937721
-0.0958535
-0.0977016
-0.0993002
-0.100633
-0.101685
-0.102451
-0.102925
-0.103109
-0.103009
-0.102634
-0.102
-0.101126
-0.10004
-0.0987697
-0.0973368
-0.0957606
-0.0940583
-0.0922451
-0.0903345
-0.0883379
-0.0862648
-0.0841224
-0.0819161
-0.0796495
-0.077325
-0.0749443
-0.0725092
-0.0700216
-0.0674842
-0.0649012
-0.0622779
-0.059622
-0.0569431
-0.0542535
-0.0515674
-0.0488994
-0.0462609
-0.0436691
-0.0411453
-0.0387073
-0.0363672
-0.0341308
-0.0319985
-0.0299677
-0.0280338
-0.0261919
-0.0244431
-0.0227979
-0.0212729
-0.0198807
-0.0186228
-0.0174888
-0.0164507
-0.0154501
-0.0144549
-0.0134645
-0.0125006
-0.0116014
-0.010781
-0.0100371
-0.00936187
-0.00872827
-0.00811738
-0.00752072
-0.00693845
-0.00637323
-0.00583117
-0.00531051
-0.00480674
-0.00431538
-0.00383289
-0.00335669
-0.00288546
-0.00241821
-0.0019552
-0.00149829
-0.0010571
-0.000646943
-0.000255062
-0.0532867
-0.0592531
-0.0647261
-0.0696977
-0.0741925
-0.0782519
-0.0819243
-0.0852574
-0.0882934
-0.0910663
-0.0935961
-0.0958869
-0.097929
-0.0997039
-0.10119
-0.102369
-0.103226
-0.103753
-0.103948
-0.10382
-0.103383
-0.10266
-0.101677
-0.10046
-0.0990386
-0.0974425
-0.0957012
-0.0938404
-0.0918809
-0.0898393
-0.0877282
-0.0855569
-0.0833317
-0.0810567
-0.0787345
-0.0763665
-0.0739537
-0.071497
-0.0689978
-0.0664585
-0.0638826
-0.0612753
-0.0586436
-0.0559968
-0.0533465
-0.0507076
-0.0480975
-0.0455385
-0.0430525
-0.0406582
-0.0383697
-0.0361944
-0.0341313
-0.0321699
-0.0302924
-0.0284802
-0.0267176
-0.0249918
-0.0233092
-0.0216929
-0.0201734
-0.0187789
-0.0175206
-0.0163799
-0.0153332
-0.0143522
-0.01342
-0.0125302
-0.0116862
-0.0108974
-0.0101663
-0.00948068
-0.00882592
-0.00819256
-0.00757821
-0.00698463
-0.00641401
-0.00586625
-0.00533955
-0.00483054
-0.00433505
-0.00384945
-0.0033713
-0.00289967
-0.00243475
-0.00197741
-0.00152932
-0.00109595
-0.000683774
-0.000262479
-0.0524089
-0.0583984
-0.0638779
-0.0688743
-0.0734275
-0.0775804
-0.0813764
-0.0848589
-0.0880632
-0.0910109
-0.0937096
-0.0961547
-0.0983324
-0.100223
-0.101805
-0.103059
-0.10397
-0.10453
-0.104739
-0.104608
-0.104152
-0.103399
-0.102376
-0.101117
-0.0996544
-0.0980201
-0.0962431
-0.0943491
-0.0923596
-0.0902922
-0.08816
-0.0859725
-0.0837364
-0.0814557
-0.0791328
-0.076769
-0.0743649
-0.0719213
-0.0694391
-0.06692
-0.0643668
-0.0617839
-0.0591772
-0.0565548
-0.053927
-0.0513064
-0.048708
-0.0461486
-0.0436454
-0.0412151
-0.0388716
-0.0366246
-0.0344778
-0.032429
-0.0304725
-0.0285972
-0.0267847
-0.0250356
-0.0233592
-0.0217734
-0.0202969
-0.0189415
-0.0177093
-0.0165814
-0.015526
-0.0145184
-0.01355
-0.0126257
-0.0117574
-0.0109516
-0.010206
-0.00951007
-0.0088493
-0.00821385
-0.00759995
-0.00700764
-0.00643796
-0.00589075
-0.0053636
-0.00485279
-0.00435454
-0.00386588
-0.00338504
-0.00291173
-0.00244694
-0.00199256
-0.00155042
-0.00112198
-0.00070538
-0.000271577
)
;

boundaryField
{
    fixedWalls
    {
        type            zeroGradient;
    }
    inflowWall
    {
        type            zeroGradient;
    }
    outflowWall
    {
        type            fixedValue;
        value           uniform 0;
    }
    frontAndBack
    {
        type            empty;
    }
}


// ************************************************************************* //
