/*--------------------------------*- C++ -*----------------------------------*\
| =========                 |                                                 |
| \\      /  F ield         | OpenFOAM: The Open Source CFD Toolbox           |
|  \\    /   O peration     | Version:  2306                                  |
|   \\  /    A nd           | Website:  www.openfoam.com                      |
|    \\/     M anipulation  |                                                 |
\*---------------------------------------------------------------------------*/
FoamFile
{
    version     2.0;
    format      ascii;
    arch        "LSB;label=32;scalar=64";
    class       surfaceScalarField;
    location    "0.61";
    object      phi;
}
// * * * * * * * * * * * * * * * * * * * * * * * * * * * * * * * * * * * * * //

dimensions      [0 3 -1 0 0 0 0];

oriented        oriented;

internalField   nonuniform List<scalar> 
890
(
8.50913e-05
1.49087e-05
7.26699e-05
1.24214e-05
6.71595e-05
5.51044e-06
6.78794e-05
-7.19958e-07
-9.59009e-06
7.74695e-05
0.0001097
5.20867e-06
0.000117543
4.57874e-06
0.000122405
6.48558e-07
0.000126113
-4.42836e-06
-1.13754e-05
0.000127898
0.00011182
-6.61126e-06
0.000124952
-8.5534e-06
0.000133372
-7.77168e-06
0.000137101
-8.15734e-06
-1.04697e-05
0.000136196
0.000109059
-1.56698e-05
0.000115017
-1.4512e-05
0.000116578
-9.33298e-06
0.000114866
-6.44495e-06
-5.61202e-06
0.000110008
8.43302e-05
6.98182e-05
6.04852e-05
5.40403e-05
4.84283e-05
-1.60548e-06
1.60548e-06
-2.47505e-06
8.69569e-07
-1.75146e-06
-7.23589e-07
2.37126e-07
-1.98858e-06
2.90031e-06
-2.66319e-06
5.7306e-06
-2.83029e-06
8.35945e-06
-2.62885e-06
1.05827e-05
-2.22322e-06
1.23271e-05
-1.74446e-06
1.36058e-05
-1.27872e-06
1.44794e-05
-8.73523e-07
1.50274e-05
-5.48054e-07
1.53307e-05
-3.03307e-07
1.5461e-05
-1.30307e-07
1.5477e-05
-1.59211e-08
1.54234e-05
5.35494e-08
1.53328e-05
9.05796e-08
1.52276e-05
1.05262e-07
1.51221e-05
1.05467e-07
1.5025e-05
9.70833e-08
1.49407e-05
8.42782e-08
1.48709e-05
6.98597e-08
1.48153e-05
5.56169e-08
1.47727e-05
4.26002e-08
1.47413e-05
3.13422e-08
1.47193e-05
2.20266e-08
1.47047e-05
1.46149e-08
1.46957e-05
8.93744e-09
1.4691e-05
4.75842e-09
1.46892e-05
1.81936e-09
1.46893e-05
-1.32593e-10
1.46906e-05
-1.32738e-09
1.46926e-05
-1.96703e-09
1.46948e-05
-2.21487e-09
1.4697e-05
-2.20176e-09
1.4699e-05
-2.02921e-09
1.47008e-05
-1.77234e-09
1.47023e-05
-1.48416e-09
1.47035e-05
-1.20021e-09
1.47044e-05
-9.42907e-10
1.47052e-05
-7.25656e-10
1.47057e-05
-5.56695e-10
1.47062e-05
-4.4335e-10
1.47066e-05
-4.01983e-10
-4.59404e-10
-1.91012e-06
3.51559e-06
-1.45042e-06
4.09867e-07
1.66408e-06
-3.83809e-06
6.60143e-06
-6.92593e-06
1.23983e-05
-8.46002e-06
1.824e-05
-8.67205e-06
2.35907e-05
-7.97952e-06
2.81568e-05
-6.78931e-06
3.18309e-05
-5.41858e-06
3.46318e-05
-4.07963e-06
3.66529e-05
-2.89463e-06
3.80232e-05
-1.91832e-06
3.888e-05
-1.16014e-06
3.93524e-05
-6.02705e-07
3.9552e-05
-2.15452e-07
3.95696e-05
3.59536e-08
3.9475e-05
1.85145e-07
3.93198e-05
2.60448e-07
3.91401e-05
2.8513e-07
3.89598e-05
2.77451e-07
3.87931e-05
2.50933e-07
3.86478e-05
2.15157e-07
3.85269e-05
1.76591e-07
3.84301e-05
1.39344e-07
3.83557e-05
1.05789e-07
3.83006e-05
7.70776e-08
3.82617e-05
5.35341e-08
3.82357e-05
3.49614e-08
3.82196e-05
2.08592e-08
3.82108e-05
1.05805e-08
3.82072e-05
3.43633e-09
3.82071e-05
-1.2276e-09
3.82092e-05
-4.02362e-09
3.82124e-05
-5.4483e-09
3.82161e-05
-5.91966e-09
3.82199e-05
-5.76917e-09
3.82234e-05
-5.24951e-09
3.82264e-05
-4.54535e-09
3.8229e-05
-3.78589e-09
3.82311e-05
-3.05698e-09
3.82328e-05
-2.41249e-09
3.82341e-05
-1.88472e-09
3.82352e-05
-1.49264e-09
3.8236e-05
-1.2509e-09
-1.18479e-09
5.10031e-09
3.51049e-06
3.86228e-06
-3.44731e-06
1.04089e-05
-1.03847e-05
1.80364e-05
-1.45535e-05
2.56837e-05
-1.61073e-05
3.27457e-05
-1.5734e-05
3.89013e-05
-1.41351e-05
4.40224e-05
-1.19104e-05
4.81086e-05
-9.50484e-06
5.1239e-05
-7.21003e-06
5.35356e-05
-5.19124e-06
5.51383e-05
-3.52096e-06
5.61873e-05
-2.20917e-06
5.68127e-05
-1.22813e-06
5.71281e-05
-5.30809e-07
5.72282e-05
-6.41176e-08
5.71868e-05
2.26483e-07
5.70617e-05
3.8553e-07
5.68947e-05
4.52135e-07
5.67147e-05
4.57459e-07
5.65405e-05
4.25176e-07
5.63831e-05
3.72549e-07
5.62481e-05
3.11617e-07
5.61371e-05
2.50326e-07
5.60493e-05
1.9353e-07
5.59826e-05
1.43842e-07
5.59338e-05
1.0231e-07
5.58998e-05
6.89537e-08
5.58775e-05
4.31624e-08
5.58641e-05
2.39873e-08
5.58572e-05
1.0343e-08
5.58548e-05
1.15257e-09
5.58554e-05
-4.62798e-09
5.58578e-05
-7.84862e-09
5.58611e-05
-9.24842e-09
5.58648e-05
-9.42323e-09
5.58684e-05
-8.83463e-09
5.58717e-05
-7.82642e-09
5.58745e-05
-6.64443e-09
5.58769e-05
-5.45631e-09
5.58789e-05
-4.37006e-09
5.58804e-05
-3.4507e-09
5.58817e-05
-2.73335e-09
5.58827e-05
-2.2307e-09
-1.96419e-09
5.9288e-06
-2.41831e-06
1.55384e-05
-1.30569e-05
2.58963e-05
-2.07426e-05
3.52479e-05
-2.39051e-05
4.31531e-05
-2.40125e-05
4.96171e-05
-2.21981e-05
5.47792e-05
-1.92972e-05
5.88149e-05
-1.59461e-05
6.19023e-05
-1.25922e-05
6.42073e-05
-9.51503e-06
6.58781e-05
-6.86202e-06
6.70437e-05
-4.68657e-06
6.7815e-05
-2.98048e-06
6.82861e-05
-1.69921e-06
6.85356e-05
-7.80382e-07
6.86286e-05
-1.57116e-07
6.86155e-05
2.39624e-07
6.85366e-05
4.64382e-07
6.84224e-05
5.66344e-07
6.82944e-05
5.8552e-07
6.8167e-05
5.5253e-07
6.80495e-05
4.90097e-07
6.79467e-05
4.14378e-07
6.78608e-05
3.36281e-07
6.77916e-05
2.62667e-07
6.77381e-05
1.97402e-07
6.76982e-05
1.42224e-07
6.76697e-05
9.74392e-08
6.76504e-05
6.24484e-08
6.76382e-05
3.61427e-08
6.76314e-05
1.71837e-08
6.76283e-05
4.20278e-09
6.76279e-05
-4.1523e-09
6.7629e-05
-9.0052e-09
6.76311e-05
-1.13203e-08
6.76336e-05
-1.19061e-08
6.76361e-05
-1.1388e-08
6.76385e-05
-1.02371e-08
6.76407e-05
-8.79418e-09
6.76425e-05
-7.29504e-09
6.7644e-05
-5.89376e-09
6.76453e-05
-4.68394e-09
6.76463e-05
-3.71593e-09
6.7647e-05
-3.00527e-09
-2.56954e-09
2.23063e-05
-2.47246e-05
3.92439e-05
-2.99945e-05
5.06961e-05
-3.21948e-05
5.86463e-05
-3.18553e-05
6.40585e-05
-2.94247e-05
6.76558e-05
-2.57954e-05
7.0006e-05
-2.16474e-05
7.152e-05
-1.74601e-05
7.24849e-05
-1.35571e-05
7.30954e-05
-1.01255e-05
7.34789e-05
-7.24545e-06
7.37154e-05
-4.92316e-06
7.38547e-05
-3.11972e-06
7.39273e-05
-1.77188e-06
7.39535e-05
-8.06561e-07
7.39476e-05
-1.51197e-07
7.39192e-05
2.67997e-07
7.38773e-05
5.06316e-07
7.38285e-05
6.15184e-07
7.37778e-05
6.36193e-07
7.3729e-05
6.01348e-07
7.36845e-05
5.34612e-07
7.36456e-05
4.5319e-07
7.36131e-05
3.68821e-07
7.35868e-05
2.88973e-07
7.35663e-05
2.17922e-07
7.35508e-05
1.57648e-07
7.35397e-05
1.08564e-07
7.35321e-05
7.00861e-08
7.35272e-05
4.10548e-08
7.35243e-05
2.00454e-08
7.35229e-05
5.58534e-09
7.35226e-05
-3.78358e-09
7.35229e-05
-9.29872e-09
7.35235e-05
-1.19952e-08
7.35244e-05
-1.27661e-08
7.35253e-05
-1.22988e-08
7.35262e-05
-1.11127e-08
7.3527e-05
-9.58526e-09
7.35277e-05
-7.97859e-09
7.35282e-05
-6.46488e-09
7.35287e-05
-5.14914e-09
7.35291e-05
-4.08803e-09
7.35294e-05
-3.29917e-09
-2.7979e-09
7.97963e-05
-2.70514e-05
8.32627e-05
-3.34609e-05
8.50582e-05
-3.39903e-05
8.53042e-05
-3.21012e-05
8.44811e-05
-2.86015e-05
8.29856e-05
-2.43e-05
8.11877e-05
-1.98495e-05
7.93799e-05
-1.56522e-05
7.77483e-05
-1.19255e-05
7.63859e-05
-8.76322e-06
7.53183e-05
-6.17783e-06
7.45282e-05
-4.13308e-06
7.39761e-05
-2.56758e-06
7.36142e-05
-1.41002e-06
7.33959e-05
-5.88187e-07
7.3281e-05
-3.63561e-08
7.32352e-05
3.13852e-07
7.32341e-05
5.07362e-07
7.32588e-05
5.90486e-07
7.32963e-05
5.98665e-07
7.33382e-05
5.59519e-07
7.3379e-05
4.93774e-07
7.34159e-05
4.1633e-07
7.34473e-05
3.37351e-07
7.3473e-05
2.63285e-07
7.34932e-05
1.97778e-07
7.35084e-05
1.42463e-07
7.35193e-05
9.75931e-08
7.35269e-05
6.25467e-08
7.35317e-05
3.62036e-08
7.35345e-05
1.72197e-08
7.35359e-05
4.22283e-09
7.35363e-05
-4.14196e-09
7.3536e-05
-9.00054e-09
7.35353e-05
-1.13186e-08
7.35344e-05
-1.19057e-08
7.35335e-05
-1.13881e-08
7.35326e-05
-1.02373e-08
7.35319e-05
-8.79436e-09
7.35312e-05
-7.29514e-09
7.35306e-05
-5.89378e-09
7.35301e-05
-4.68391e-09
7.35298e-05
-3.71588e-09
7.35295e-05
-3.00521e-09
-2.56948e-09
0.000122526
-2.16787e-05
0.000115897
-2.68325e-05
0.000108971
-2.7064e-05
0.00010184
-2.49706e-05
9.49685e-05
-2.17298e-05
8.87041e-05
-1.80356e-05
8.32505e-05
-1.4396e-05
7.87042e-05
-1.11059e-05
7.50679e-05
-8.28922e-06
7.2274e-05
-5.96935e-06
7.02137e-05
-4.11753e-06
6.87616e-05
-2.68094e-06
6.77926e-05
-1.59865e-06
6.71927e-05
-8.1005e-07
6.68634e-05
-2.58885e-07
6.67221e-05
1.04891e-07
6.67089e-05
3.27074e-07
6.67732e-05
4.4303e-07
6.68799e-05
4.83848e-07
6.70041e-05
4.74439e-07
6.71295e-05
4.3409e-07
6.72461e-05
3.77213e-07
6.73483e-05
3.14106e-07
6.74339e-05
2.51715e-07
6.75029e-05
1.94354e-07
6.75563e-05
1.44358e-07
6.75961e-05
1.02644e-07
6.76245e-05
6.91707e-08
6.76438e-05
4.33006e-08
6.76559e-05
2.40719e-08
6.76627e-05
1.03921e-08
6.76658e-05
1.1791e-09
6.76663e-05
-4.6149e-09
6.76651e-05
-7.8431e-09
6.7663e-05
-9.24667e-09
6.76605e-05
-9.4231e-09
6.7658e-05
-8.83502e-09
6.76556e-05
-7.82683e-09
6.76534e-05
-6.64469e-09
6.76516e-05
-5.45642e-09
6.76501e-05
-4.37005e-09
6.76488e-05
-3.45063e-09
6.76479e-05
-2.73326e-09
6.76471e-05
-2.2306e-09
-1.96411e-09
0.000129041
-1.45241e-05
0.000118859
-1.66506e-05
0.000107974
-1.61791e-05
9.73693e-05
-1.43656e-05
8.77152e-05
-1.20757e-05
7.94047e-05
-9.72506e-06
7.25614e-05
-7.5526e-06
6.71347e-05
-5.67923e-06
6.298e-05
-4.13446e-06
5.99097e-05
-2.89907e-06
5.77278e-05
-1.93563e-06
5.62494e-05
-1.20258e-06
5.53109e-05
-6.60152e-07
5.47734e-05
-2.72493e-07
5.45219e-05
-7.4478e-09
5.44663e-05
1.60493e-07
5.45365e-05
2.5687e-07
5.46795e-05
3.00073e-07
5.48571e-05
3.06268e-07
5.50431e-05
2.88435e-07
5.52206e-05
2.5658e-07
5.53797e-05
2.18099e-07
5.55156e-05
1.78194e-07
5.5627e-05
1.4028e-07
5.5715e-05
1.06376e-07
5.57819e-05
7.74626e-08
5.58308e-05
5.379e-08
5.58648e-05
3.51287e-08
5.58871e-05
2.09645e-08
5.59006e-05
1.06432e-08
5.59075e-05
3.47127e-09
5.59099e-05
-1.20989e-09
5.59093e-05
-4.0157e-09
5.59069e-05
-5.44553e-09
5.59036e-05
-5.91923e-09
5.58999e-05
-5.76957e-09
5.58963e-05
-5.25003e-09
5.5893e-05
-4.54574e-09
5.58902e-05
-3.78609e-09
5.58878e-05
-3.05702e-09
5.58858e-05
-2.41244e-09
5.58843e-05
-1.88464e-09
5.5883e-05
-1.49255e-09
5.5882e-05
-1.25082e-09
-1.18471e-09
0.000101482
-5.9976e-06
9.09182e-05
-6.08709e-06
8.02128e-05
-5.47373e-06
7.0395e-05
-4.54775e-06
6.1935e-05
-3.61567e-06
5.49912e-05
-2.78127e-06
4.95141e-05
-2.07554e-06
4.53386e-05
-1.5037e-06
4.22576e-05
-1.0535e-06
4.00643e-05
-7.05724e-07
3.85704e-05
-4.41717e-07
3.76133e-05
-2.45548e-07
3.70571e-05
-1.03956e-07
3.67907e-05
-6.04959e-09
3.67254e-05
5.78622e-08
3.67907e-05
9.51648e-08
3.69346e-05
1.13e-07
3.71179e-05
1.16816e-07
3.73129e-05
1.11205e-07
3.75015e-05
9.98799e-08
3.76724e-05
8.56634e-08
3.78199e-05
7.05938e-08
3.7942e-05
5.60513e-08
3.80394e-05
4.28864e-08
3.81143e-05
3.15423e-08
3.81696e-05
2.21674e-08
3.82086e-05
1.47109e-08
3.82348e-05
8.99969e-09
3.82509e-05
4.79621e-09
3.82597e-05
1.84054e-09
3.82633e-05
-1.2188e-10
3.82634e-05
-1.32273e-09
3.82614e-05
-1.96554e-09
3.82582e-05
-2.2148e-09
3.82544e-05
-2.20216e-09
3.82507e-05
-2.02964e-09
3.82472e-05
-1.77264e-09
3.82442e-05
-1.48432e-09
3.82416e-05
-1.20025e-09
3.82395e-05
-9.42887e-10
3.82378e-05
-7.25604e-10
3.82365e-05
-5.56636e-10
3.82354e-05
-4.43297e-10
3.82346e-05
-4.01941e-10
-4.59368e-10
4.24307e-05
3.63436e-05
3.08698e-05
2.63221e-05
2.27064e-05
1.99251e-05
1.78496e-05
1.63459e-05
1.52924e-05
1.45867e-05
1.4145e-05
1.38994e-05
1.37955e-05
1.37894e-05
1.38473e-05
1.39424e-05
1.40554e-05
1.41722e-05
1.42835e-05
1.43833e-05
1.4469e-05
1.45396e-05
1.45956e-05
1.46385e-05
1.46701e-05
1.46922e-05
1.47069e-05
1.47159e-05
1.47207e-05
1.47226e-05
1.47225e-05
1.47211e-05
1.47192e-05
1.4717e-05
1.47148e-05
1.47127e-05
1.4711e-05
1.47095e-05
1.47083e-05
1.47073e-05
1.47066e-05
1.4706e-05
1.47056e-05
1.47052e-05
)
;

boundaryField
{
    fixedWalls
    {
        type            calculated;
        value           uniform 0;
    }
    inflowWall
    {
        type            calculated;
        value           nonuniform List<scalar> 5(-0.0001 -0.0001 -0.0001 -0.0001 -0.0001);
    }
    outflowWall
    {
        type            calculated;
        value           nonuniform List<scalar> 10(1.4707e-05 3.82368e-05 5.58834e-05 6.76476e-05 7.35296e-05 7.35292e-05 6.76465e-05 5.58813e-05 3.82338e-05 1.47047e-05);
    }
    frontAndBack
    {
        type            empty;
        value           nonuniform List<scalar> 0();
    }
}


// ************************************************************************* //
