/*--------------------------------*- C++ -*----------------------------------*\
| =========                 |                                                 |
| \\      /  F ield         | OpenFOAM: The Open Source CFD Toolbox           |
|  \\    /   O peration     | Version:  2306                                  |
|   \\  /    A nd           | Website:  www.openfoam.com                      |
|    \\/     M anipulation  |                                                 |
\*---------------------------------------------------------------------------*/
FoamFile
{
    version     2.0;
    format      ascii;
    arch        "LSB;label=32;scalar=64";
    class       volScalarField;
    location    "4.53";
    object      p;
}
// * * * * * * * * * * * * * * * * * * * * * * * * * * * * * * * * * * * * * //

dimensions      [0 2 -2 0 0 0 0];

internalField   nonuniform List<scalar> 
1900
(
0.0560684
0.031847
0.0114548
-0.00388617
-0.0149067
-0.0254628
-0.0359052
-0.048071
-0.0606273
-0.0746838
0.0268075
0.0186091
0.00729307
-0.0042599
-0.0152849
-0.0254735
-0.0359074
-0.0464217
-0.0579194
-0.0689737
0.0177141
0.0132236
0.00570812
-0.0036599
-0.0137433
-0.023722
-0.0335007
-0.0430524
-0.0524786
-0.0615629
0.0120125
0.00893921
0.00328958
-0.00435848
-0.0132096
-0.0224493
-0.0316396
-0.0405526
-0.0491446
-0.0573033
0.00978758
0.00725227
0.00251372
-0.00413414
-0.0121126
-0.0207155
-0.0293896
-0.0378122
-0.0458339
-0.0533657
0.0104211
0.00794031
0.00332961
-0.00313539
-0.0108738
-0.0191772
-0.0274869
-0.0354856
-0.0430492
-0.0501489
0.0138759
0.0109299
0.00564872
-0.00143439
-0.00949457
-0.0177813
-0.0258291
-0.0334603
-0.0406671
-0.0474842
0.0205743
0.0162788
0.00938105
0.000912186
-0.00790774
-0.0163321
-0.0241651
-0.0315005
-0.0384879
-0.0451893
0.0307146
0.0226155
0.0121795
0.0017187
-0.0075881
-0.0156995
-0.0230678
-0.0301159
-0.0370073
-0.0437018
0.0595646
0.0368922
0.0171855
0.00312295
-0.00653409
-0.0142288
-0.0214573
-0.0286746
-0.0358308
-0.0427205
-0.0978836
-0.097917
-0.0979619
-0.098016
-0.0980763
-0.0981424
-0.0982138
-0.0982896
-0.0983682
-0.0984483
-0.0985281
-0.0986059
-0.09868
-0.0987486
-0.0988102
-0.0988629
-0.0989054
-0.0989361
-0.0989537
-0.0989571
-0.0989452
-0.098917
-0.098872
-0.0988094
-0.0987289
-0.0986299
-0.0985124
-0.0983761
-0.0982209
-0.0980464
-0.0978526
-0.0976391
-0.0974058
-0.0971523
-0.0968782
-0.0965826
-0.096264
-0.0959194
-0.0955439
-0.0951291
-0.0946627
-0.0941265
-0.0934969
-0.092744
-0.0918329
-0.0907246
-0.089377
-0.0877438
-0.0857731
-0.083406
-0.0805769
-0.0772157
-0.0732514
-0.0686232
-0.0632951
-0.0572502
-0.0505091
-0.0431316
-0.0351974
-0.0268187
-0.0181372
-0.00932052
-0.000533551
0.00804913
0.0162598
0.0239463
0.0309723
0.0372283
0.0426294
0.0471306
0.0506985
0.0533424
0.0550744
0.055946
0.0560018
0.0553202
0.0539602
0.0520113
0.0495307
0.0466073
0.0432861
0.0396481
0.0357167
0.0315636
0.0271842
0.0226469
0.0179086
0.0130491
0.00795773
0.00278351
-0.097879
-0.0979107
-0.0979377
-0.0979792
-0.0980304
-0.0980899
-0.0981561
-0.0982273
-0.0983021
-0.0983788
-0.0984557
-0.0985311
-0.0986033
-0.0986704
-0.0987307
-0.0987826
-0.0988244
-0.0988547
-0.098872
-0.0988751
-0.0988629
-0.0988345
-0.0987889
-0.0987256
-0.098644
-0.0985436
-0.098424
-0.0982851
-0.0981264
-0.0979478
-0.0977488
-0.097529
-0.097288
-0.0970248
-0.0967385
-0.0964279
-0.0960909
-0.0957245
-0.0953239
-0.094882
-0.0943886
-0.0938298
-0.0931871
-0.0924372
-0.0915511
-0.0904945
-0.0892274
-0.087703
-0.0858647
-0.0836448
-0.0809653
-0.0777412
-0.0738862
-0.0693417
-0.0641126
-0.0581725
-0.0515215
-0.0442005
-0.0362967
-0.0279298
-0.01924
-0.010401
-0.00158538
0.00703186
0.0152722
0.022988
0.03005
0.0363247
0.0417408
0.0462586
0.0498405
0.0524983
0.0542416
0.0551273
0.0551955
0.0545319
0.0531887
0.0512655
0.0488104
0.0459235
0.0426354
0.0390429
0.0351514
0.0310531
0.0267211
0.022244
0.0175554
0.0127569
0.00774713
0.00267157
-0.0977615
-0.0978427
-0.0978883
-0.0979418
-0.097998
-0.0980594
-0.0981272
-0.0982003
-0.0982774
-0.0983568
-0.0984367
-0.0985154
-0.098591
-0.0986616
-0.0987254
-0.0987807
-0.0988258
-0.0988591
-0.0988791
-0.0988845
-0.0988742
-0.0988471
-0.0988023
-0.0987393
-0.0986575
-0.0985565
-0.0984359
-0.0982957
-0.0981357
-0.0979559
-0.0977561
-0.097536
-0.097295
-0.0970319
-0.0967459
-0.0964352
-0.0960976
-0.0957297
-0.095327
-0.0948833
-0.0943907
-0.0938397
-0.0932176
-0.0925082
-0.0916892
-0.0907293
-0.0895861
-0.0882074
-0.0865281
-0.0844674
-0.0819369
-0.0788615
-0.0751578
-0.0707468
-0.06556
-0.0596158
-0.052939
-0.0455918
-0.0376624
-0.0292736
-0.0205458
-0.0117016
-0.0028941
0.005711
0.013935
0.0216343
0.0286623
0.0349149
0.0403026
0.0447905
0.0483422
0.0509744
0.0526962
0.05357
0.0536342
0.0529798
0.051656
0.0497666
0.0473556
0.0445275
0.0413095
0.037801
0.0340059
0.030016
0.0258069
0.0214641
0.0169341
0.0123043
0.00749806
0.00261514
-0.0978435
-0.0979172
-0.0979215
-0.0979474
-0.0979931
-0.0980552
-0.0981285
-0.0982092
-0.0982946
-0.0983826
-0.098471
-0.0985577
-0.0986407
-0.098718
-0.0987877
-0.098848
-0.0988973
-0.098934
-0.0989565
-0.0989636
-0.0989541
-0.0989271
-0.0988816
-0.0988172
-0.0987332
-0.0986293
-0.0985053
-0.0983613
-0.0981974
-0.0980138
-0.0978104
-0.0975873
-0.0973438
-0.0970785
-0.0967901
-0.096477
-0.0961373
-0.0957684
-0.0953668
-0.094928
-0.0944456
-0.0939121
-0.0933205
-0.0926589
-0.0919072
-0.0910338
-0.0899899
-0.0887185
-0.0871559
-0.0852135
-0.0827879
-0.079783
-0.0761218
-0.0717462
-0.0666019
-0.060697
-0.054056
-0.0467464
-0.0388635
-0.030531
-0.021896
-0.0131437
-0.00445116
0.00401816
0.0120918
0.0196273
0.0264859
0.0325729
0.0378026
0.0421421
0.0455619
0.0480822
0.0497175
0.0505316
0.0505672
0.0499139
0.0486242
0.0467978
0.0444818
0.0417746
0.0387079
0.0353722
0.0317783
0.0280065
0.0240446
0.0199645
0.0157308
0.0114105
0.00694634
0.00240565
-0.0975173
-0.0977227
-0.0978135
-0.0979177
-0.0980164
-0.0981097
-0.0982024
-0.0982976
-0.0983952
-0.0984934
-0.0985904
-0.0986844
-0.0987733
-0.0988553
-0.0989284
-0.0989911
-0.0990417
-0.0990786
-0.0991004
-0.0991056
-0.0990933
-0.0990625
-0.0990126
-0.0989431
-0.0988536
-0.0987438
-0.0986139
-0.0984641
-0.0982949
-0.0981067
-0.0979
-0.0976747
-0.0974302
-0.0971649
-0.0968762
-0.0965635
-0.0962252
-0.0958589
-0.0954619
-0.0950305
-0.094559
-0.0940404
-0.093472
-0.0928429
-0.09213
-0.0913046
-0.0903056
-0.0890716
-0.0875233
-0.085587
-0.0831633
-0.080163
-0.0765048
-0.0721327
-0.0670095
-0.0611422
-0.054565
-0.0473504
-0.0395981
-0.0314385
-0.0230209
-0.0145159
-0.00610155
0.00205885
0.00980537
0.0170017
0.023523
0.0292818
0.0342054
0.0382649
0.0414421
0.0437605
0.0452436
0.0459542
0.0459416
0.0452902
0.0440573
0.0423336
0.0401714
0.0376571
0.0348289
0.0317633
0.02848
0.025044
0.021456
0.0177707
0.0139702
0.0101025
0.00613354
0.00211273
-0.098349
-0.0983716
-0.0982706
-0.0982257
-0.0982363
-0.0982942
-0.0983822
-0.0984831
-0.0985862
-0.0986881
-0.0987866
-0.09888
-0.0989667
-0.099045
-0.0991134
-0.0991705
-0.0992148
-0.0992449
-0.0992595
-0.0992573
-0.0992372
-0.0991986
-0.099141
-0.0990641
-0.0989676
-0.0988512
-0.0987151
-0.0985598
-0.098386
-0.0981942
-0.0979849
-0.097758
-0.0975128
-0.0972473
-0.0969572
-0.0966473
-0.0963139
-0.0959532
-0.0955624
-0.0951382
-0.0946756
-0.0941653
-0.0935938
-0.0929519
-0.0922183
-0.0913572
-0.0903143
-0.0890271
-0.0874192
-0.0854115
-0.0829137
-0.0798443
-0.0761316
-0.0717302
-0.0666163
-0.0608022
-0.0543307
-0.0472805
-0.0397567
-0.0318918
-0.0238343
-0.0157463
-0.00779283
-0.000129932
0.00709885
0.0137693
0.0197751
0.0250398
0.0295083
0.0331594
0.0359894
0.0380251
0.0393012
0.0398777
0.0398107
0.0391763
0.0380361
0.0364686
0.0345293
0.0322901
0.0297937
0.0271006
0.0242376
0.0212533
0.0181582
0.0149906
0.0117469
0.00845864
0.00511187
0.00173867
-0.0970226
-0.0976691
-0.0978721
-0.0981286
-0.0983441
-0.0985072
-0.0986295
-0.0987305
-0.0988235
-0.0989118
-0.0989958
-0.0990743
-0.099146
-0.0992096
-0.0992639
-0.0993075
-0.0993393
-0.0993582
-0.0993625
-0.0993507
-0.099322
-0.0992755
-0.0992106
-0.0991271
-0.0990246
-0.0989026
-0.0987613
-0.0986026
-0.0984266
-0.0982333
-0.0980231
-0.0977961
-0.0975514
-0.0972874
-0.0969988
-0.0966792
-0.0963336
-0.0959593
-0.0955511
-0.0951033
-0.0946088
-0.0940586
-0.0934399
-0.0927366
-0.091922
-0.0909593
-0.0897956
-0.0883693
-0.0866082
-0.0844386
-0.0817842
-0.0785773
-0.0747619
-0.0703055
-0.0651986
-0.0594644
-0.0531546
-0.0463545
-0.0391721
-0.031739
-0.0241979
-0.0167008
-0.00939504
-0.00241972
0.00410424
0.0100718
0.0153998
0.020028
0.0239218
0.0270709
0.0294862
0.0311979
0.0322493
0.032696
0.0325972
0.0320188
0.0310227
0.0296735
0.0280265
0.0261381
0.024052
0.021813
0.0194516
0.0170009
0.0144787
0.0119082
0.0092965
0.00666065
0.00400159
0.00133703
-0.101735
-0.100355
-0.099727
-0.0992936
-0.0990671
-0.0989778
-0.0989659
-0.0989905
-0.0990294
-0.0990752
-0.0991247
-0.0991744
-0.0992223
-0.0992666
-0.0993053
-0.0993363
-0.0993581
-0.0993682
-0.0993637
-0.0993443
-0.0993093
-0.0992581
-0.0991902
-0.0991053
-0.099002
-0.0988791
-0.0987349
-0.098569
-0.0983845
-0.0981815
-0.097959
-0.0977158
-0.0974501
-0.0971591
-0.0968391
-0.096487
-0.0961006
-0.095676
-0.095207
-0.0946862
-0.0941041
-0.0934495
-0.0927063
-0.0918542
-0.0908648
-0.0897011
-0.0883148
-0.0866501
-0.0846442
-0.0822346
-0.0793609
-0.0759742
-0.0720377
-0.067536
-0.0624749
-0.0568894
-0.0508387
-0.0444102
-0.0377096
-0.0308623
-0.0239987
-0.017255
-0.0107577
-0.00462419
0.00105259
0.00619244
0.0107388
0.0146514
0.0179158
0.0205323
0.0225235
0.0239202
0.0247692
0.0251188
0.0250269
0.0245474
0.0237389
0.0226519
0.021339
0.0198413
0.0182017
0.0164501
0.014619
0.0127275
0.0107986
0.00884228
0.00687442
0.00489842
0.00292522
0.000955405
-0.0958935
-0.0969803
-0.0978177
-0.0984296
-0.0987464
-0.0988652
-0.0988997
-0.0989134
-0.0989293
-0.0989595
-0.0989987
-0.0990395
-0.09908
-0.0991189
-0.0991539
-0.0991831
-0.0992055
-0.0992207
-0.0992245
-0.0992108
-0.0991777
-0.099125
-0.0990522
-0.0989591
-0.0988455
-0.0987089
-0.0985471
-0.0983593
-0.0981458
-0.0979061
-0.0976391
-0.0973427
-0.0970143
-0.0966505
-0.0962471
-0.0957992
-0.095302
-0.09475
-0.0941361
-0.0934516
-0.0926854
-0.0918237
-0.0908494
-0.0897421
-0.0884749
-0.0870148
-0.0853214
-0.0833496
-0.0810511
-0.078379
-0.0752905
-0.0717521
-0.067744
-0.0632682
-0.0583465
-0.0530242
-0.0473657
-0.0414565
-0.0353941
-0.0292894
-0.0232526
-0.0173955
-0.0118166
-0.00660734
-0.00183705
0.00243809
0.00618691
0.00938775
0.0120423
0.0141578
0.0157625
0.0168848
0.0175701
0.0178576
0.0178009
0.0174415
0.0168341
0.0160159
0.0150366
0.0139235
0.0127187
0.0114381
0.010116
0.00875787
0.00739213
0.00601519
0.00465185
0.00329145
0.00195671
0.000629375
-0.118567
-0.10365
-0.101724
-0.100247
-0.0993325
-0.0989039
-0.0987293
-0.0986673
-0.0986488
-0.0986526
-0.0986915
-0.0987536
-0.0988185
-0.0988791
-0.098934
-0.0989813
-0.0990184
-0.0990416
-0.0990459
-0.0990263
-0.0989796
-0.0989045
-0.098801
-0.09867
-0.0985104
-0.0983192
-0.0980933
-0.0978303
-0.0975285
-0.0971865
-0.0968026
-0.0963748
-0.0959006
-0.095376
-0.0947968
-0.0941579
-0.0934538
-0.0926785
-0.0918248
-0.0908842
-0.0898459
-0.0886969
-0.0874207
-0.0859964
-0.0843997
-0.0826038
-0.080579
-0.0782935
-0.0757152
-0.0728151
-0.0695696
-0.0659651
-0.0620002
-0.0576901
-0.0530648
-0.0481715
-0.0430699
-0.0378343
-0.0325465
-0.0272963
-0.0221708
-0.0172557
-0.0126232
-0.00833954
-0.00445277
-0.000999505
0.00200731
0.00455899
0.00666579
0.00833756
0.00960388
0.0104894
0.0110369
0.0112775
0.0112601
0.0110161
0.0105958
0.0100255
0.00935216
0.00859163
0.00778476
0.00693501
0.00607832
0.00520616
0.00435253
0.00349825
0.00267889
0.00186578
0.00109805
0.000333392
-0.0861318
-0.0925852
-0.0950928
-0.0959368
-0.0963853
-0.096788
-0.0971606
-0.0974738
-0.0977448
-0.0979809
-0.0981841
-0.0983571
-0.0985028
-0.0986252
-0.0987265
-0.0988064
-0.0988615
-0.0988872
-0.0988784
-0.0988307
-0.0987407
-0.0986065
-0.0984276
-0.0982036
-0.0979339
-0.0976166
-0.0972498
-0.0968316
-0.0963604
-0.0958351
-0.0952539
-0.0946135
-0.0939105
-0.0931416
-0.0923031
-0.0913909
-0.0904001
-0.0893255
-0.0881607
-0.0868983
-0.0855295
-0.0840435
-0.0824277
-0.0806672
-0.0787457
-0.0766458
-0.074349
-0.0718366
-0.0690912
-0.0660987
-0.0628506
-0.0593459
-0.0555929
-0.0516109
-0.0474301
-0.0430916
-0.038645
-0.0341493
-0.0296694
-0.025275
-0.0210334
-0.0170096
-0.0132577
-0.00982382
-0.00673671
-0.00401641
-0.001666
0.000314161
0.00193792
0.00321751
0.00418185
0.00485459
0.0052757
0.00547235
0.00548831
0.00534822
0.00509635
0.00475071
0.0043534
0.00391157
0.00346354
0.00300246
0.00256416
0.00212682
0.00172861
0.00133344
0.000988333
0.000641535
0.000352636
4.83256e-05
-0.0802134
-0.0879884
-0.0919695
-0.093394
-0.0938292
-0.0941678
-0.0946676
-0.0952854
-0.0959079
-0.0964607
-0.0969203
-0.0972952
-0.0976034
-0.0978594
-0.0980704
-0.0982367
-0.0983541
-0.0984165
-0.0984179
-0.0983533
-0.0982193
-0.0980142
-0.0977375
-0.0973895
-0.096971
-0.0964825
-0.0959243
-0.0952966
-0.0945995
-0.0938328
-0.092996
-0.0920878
-0.0911068
-0.090051
-0.0889183
-0.087706
-0.0864109
-0.0850292
-0.0835564
-0.0819876
-0.0803167
-0.0785373
-0.0766415
-0.0746211
-0.0724671
-0.0701697
-0.0677193
-0.0651059
-0.0623217
-0.0593617
-0.0562254
-0.0529181
-0.0494514
-0.045845
-0.0421272
-0.0383345
-0.0345111
-0.0307057
-0.0269685
-0.0233506
-0.0199017
-0.0166682
-0.013688
-0.0109912
-0.00859593
-0.00651271
-0.00473891
-0.00326473
-0.00207069
-0.00113907
-0.000442392
4.37451e-05
0.000355483
0.000520361
0.000576864
0.000546582
0.000463629
0.000339202
0.000204494
6.09804e-05
-6.09248e-05
-0.000173236
-0.000245635
-0.000307174
-0.000321463
-0.000336218
-0.000297474
-0.000277595
-0.000196183
-0.000163251
-0.0700225
-0.0772088
-0.0825522
-0.0860436
-0.0881904
-0.0896499
-0.0908702
-0.0920306
-0.0931435
-0.0941636
-0.0950531
-0.095802
-0.0964207
-0.0969262
-0.0973321
-0.0976449
-0.0978653
-0.0979902
-0.098016
-0.0979395
-0.0977591
-0.0974748
-0.0970882
-0.0966017
-0.0960185
-0.095342
-0.0945755
-0.093722
-0.0927839
-0.0917636
-0.0906628
-0.0894824
-0.088223
-0.0868842
-0.0854652
-0.0839649
-0.0823814
-0.0807126
-0.0789561
-0.0771094
-0.0751694
-0.0731333
-0.070998
-0.0687603
-0.0664175
-0.0639667
-0.0614057
-0.0587331
-0.0559488
-0.0530543
-0.0500537
-0.0469544
-0.0437687
-0.0405144
-0.037217
-0.0339096
-0.0306321
-0.0274276
-0.0243391
-0.0214056
-0.0186593
-0.0161251
-0.0138213
-0.011763
-0.00996256
-0.00842763
-0.00715218
-0.00611494
-0.00528432
-0.00463214
-0.00413218
-0.00376337
-0.0034985
-0.00331109
-0.00316892
-0.00305227
-0.00294095
-0.00283162
-0.00271099
-0.00258229
-0.0024294
-0.00226251
-0.00206223
-0.00185157
-0.00160222
-0.00135559
-0.00106436
-0.000802828
-0.000484837
-0.000246514
-0.0648173
-0.0714417
-0.0769177
-0.081141
-0.0842351
-0.0865101
-0.0883069
-0.0898642
-0.0912899
-0.0926016
-0.0937792
-0.0948023
-0.0956643
-0.0963709
-0.0969324
-0.097357
-0.0976483
-0.0978066
-0.0978302
-0.0977175
-0.0974686
-0.0970852
-0.0965712
-0.0959312
-0.095171
-0.0942967
-0.0933143
-0.0922293
-0.091047
-0.0897723
-0.088409
-0.0869603
-0.0854283
-0.0838141
-0.0821182
-0.0803407
-0.0784811
-0.0765391
-0.0745142
-0.0724064
-0.0702156
-0.0679427
-0.0655887
-0.0631554
-0.0606456
-0.0580628
-0.0554117
-0.0526978
-0.0499274
-0.0471075
-0.0442457
-0.0413506
-0.0384332
-0.035508
-0.0325955
-0.0297239
-0.02693
-0.0242566
-0.021746
-0.0194305
-0.0173252
-0.0154272
-0.0137242
-0.0122104
-0.0108947
-0.00979063
-0.00889536
-0.00818043
-0.00759789
-0.00710392
-0.00667462
-0.00630378
-0.00598509
-0.0057047
-0.00543959
-0.00517086
-0.00488401
-0.00457752
-0.00425147
-0.00391523
-0.00356901
-0.0032209
-0.00286308
-0.00250479
-0.00213064
-0.00176067
-0.00136714
-0.000997412
-0.000589392
-0.000259164
-0.0603246
-0.0666029
-0.0720726
-0.0766386
-0.0803079
-0.0832138
-0.0855664
-0.0875653
-0.0893429
-0.0909577
-0.0924174
-0.0937085
-0.0948175
-0.0957395
-0.0964765
-0.0970337
-0.097415
-0.0976221
-0.0976555
-0.0975158
-0.0972051
-0.0967281
-0.0960911
-0.0953022
-0.0943697
-0.0933023
-0.0921085
-0.0907967
-0.0893751
-0.0878512
-0.0862318
-0.084522
-0.0827257
-0.0808456
-0.0788836
-0.0768407
-0.074718
-0.0725168
-0.0702387
-0.0678863
-0.0654628
-0.0629726
-0.0604209
-0.0578143
-0.0551605
-0.0524688
-0.0497503
-0.0470174
-0.0442831
-0.04156
-0.0388588
-0.0361889
-0.0335587
-0.0309776
-0.0284572
-0.0260142
-0.0236757
-0.0214833
-0.0194836
-0.01771
-0.0161647
-0.0148106
-0.0135967
-0.0124928
-0.0115067
-0.0106625
-0.00997021
-0.00941017
-0.00892969
-0.00847047
-0.00800435
-0.00753713
-0.00708586
-0.00666179
-0.00626314
-0.00588157
-0.00550598
-0.00512757
-0.00473985
-0.00434375
-0.00394003
-0.00353371
-0.00312333
-0.002713
-0.00229684
-0.0018823
-0.00145876
-0.00104765
-0.000620602
-0.000251357
-0.0567654
-0.062844
-0.0682987
-0.0730519
-0.0770804
-0.0804382
-0.0832467
-0.0856513
-0.0877725
-0.089682
-0.0914057
-0.0929412
-0.0942757
-0.0953979
-0.0963023
-0.0969881
-0.0974566
-0.0977088
-0.097746
-0.0975704
-0.0971867
-0.0966029
-0.0958299
-0.0948802
-0.0937657
-0.0924978
-0.0910876
-0.089546
-0.0878839
-0.0861116
-0.0842381
-0.082271
-0.0802164
-0.0780787
-0.0758611
-0.0735665
-0.0711972
-0.0687563
-0.0662477
-0.0636766
-0.0610497
-0.0583756
-0.0556644
-0.0529272
-0.0501762
-0.0474248
-0.0446888
-0.0419875
-0.0393411
-0.0367667
-0.0342758
-0.0318745
-0.0295665
-0.0273544
-0.0252398
-0.0232222
-0.0213074
-0.0195269
-0.0179264
-0.016546
-0.0153897
-0.0144001
-0.0135037
-0.0126558
-0.0118547
-0.0111146
-0.0104414
-0.009854
-0.00933982
-0.00886006
-0.00839125
-0.00793821
-0.00749087
-0.0070433
-0.00659428
-0.00614409
-0.00569379
-0.00524707
-0.00480769
-0.00437792
-0.0039563
-0.00354128
-0.00312991
-0.00272044
-0.0023081
-0.00189368
-0.00147341
-0.00105524
-0.000633288
-0.000254485
-0.0539099
-0.0598889
-0.06534
-0.0701973
-0.0744404
-0.0781018
-0.0812585
-0.0840092
-0.0864471
-0.0886384
-0.0906156
-0.092384
-0.0939332
-0.0952486
-0.0963182
-0.0971344
-0.0976935
-0.0979942
-0.098037
-0.097825
-0.0973649
-0.0966683
-0.0957518
-0.0946346
-0.0933337
-0.0918638
-0.0902391
-0.0884732
-0.0865797
-0.0845716
-0.0824606
-0.0802568
-0.0779684
-0.0756018
-0.0731621
-0.0706538
-0.0680812
-0.0654491
-0.0627636
-0.0600326
-0.0572664
-0.0544777
-0.0516821
-0.048896
-0.0461358
-0.0434152
-0.0407502
-0.0381642
-0.0356806
-0.0333152
-0.0310741
-0.0289548
-0.0269512
-0.02506
-0.0232798
-0.0216098
-0.0200479
-0.0185994
-0.0172902
-0.0161364
-0.015126
-0.0142357
-0.0134364
-0.0127038
-0.0120332
-0.0114313
-0.0108756
-0.0103145
-0.00972253
-0.00910959
-0.0085134
-0.0079518
-0.00743336
-0.0069596
-0.0065173
-0.0060901
-0.00566732
-0.00524455
-0.0048211
-0.00439826
-0.00397796
-0.0035614
-0.00314719
-0.00273394
-0.00231939
-0.00190281
-0.00148261
-0.00106283
-0.000649675
-0.000251031
-0.0515652
-0.0575248
-0.0629843
-0.0678997
-0.0722712
-0.0761367
-0.0795564
-0.0825979
-0.0853249
-0.0877875
-0.0900147
-0.0920139
-0.0937758
-0.095284
-0.0965208
-0.0974717
-0.0981269
-0.0984814
-0.0985348
-0.0982912
-0.0977594
-0.0969543
-0.095898
-0.0946165
-0.0931335
-0.0914706
-0.0896477
-0.0876831
-0.0855938
-0.0833952
-0.081101
-0.0787224
-0.0762687
-0.0737475
-0.071165
-0.0685265
-0.0658376
-0.0631046
-0.0603347
-0.0575374
-0.0547248
-0.0519118
-0.049117
-0.0463614
-0.0436656
-0.0410441
-0.0385179
-0.0361086
-0.0338302
-0.0316857
-0.0296682
-0.0277654
-0.0259599
-0.0242405
-0.0226145
-0.0211069
-0.0197506
-0.0185663
-0.0175477
-0.0166562
-0.0157871
-0.0148784
-0.0139293
-0.012987
-0.01213
-0.0113801
-0.0107328
-0.0101574
-0.00961005
-0.00906878
-0.00853305
-0.00801071
-0.0075139
-0.00704214
-0.00658733
-0.00614234
-0.005703
-0.00526812
-0.00483796
-0.00441245
-0.00399066
-0.00357225
-0.00315623
-0.0027414
-0.00232631
-0.00190983
-0.00149122
-0.00107446
-0.000666778
-0.000249913
-0.0500712
-0.0560006
-0.0614304
-0.0663525
-0.0707913
-0.074788
-0.0783921
-0.0816521
-0.0846105
-0.0873014
-0.089745
-0.0919451
-0.0938927
-0.095569
-0.0969525
-0.0980227
-0.0987636
-0.0991657
-0.0992265
-0.0989518
-0.0983552
-0.0974569
-0.09628
-0.0948509
-0.0932011
-0.0913631
-0.0893667
-0.0872382
-0.0849996
-0.0826691
-0.0802611
-0.077787
-0.0752555
-0.072673
-0.0700449
-0.0673759
-0.0646706
-0.0619344
-0.0591739
-0.0563978
-0.053617
-0.0508462
-0.0481032
-0.0454104
-0.042794
-0.0402856
-0.0379136
-0.035696
-0.0336386
-0.0317303
-0.029944
-0.028242
-0.026588
-0.024945
-0.0233072
-0.0217008
-0.0201757
-0.0187875
-0.0175731
-0.0165083
-0.0155578
-0.0146662
-0.0138132
-0.0129951
-0.0122284
-0.0115291
-0.0108936
-0.0102958
-0.00971478
-0.00914403
-0.00858858
-0.00805594
-0.00754994
-0.00706832
-0.00660632
-0.00615779
-0.00571774
-0.00528328
-0.00485315
-0.004427
-0.00400445
-0.0035849
-0.00316752
-0.00275144
-0.00233582
-0.00191982
-0.00150306
-0.00108853
-0.000679649
-0.000251564
-0.0491781
-0.0551277
-0.060561
-0.0655045
-0.0699981
-0.074085
-0.077809
-0.0812139
-0.0843364
-0.0871987
-0.0898088
-0.0921625
-0.094246
-0.0960395
-0.0975206
-0.0986686
-0.099467
-0.0999061
-0.0999846
-0.0997099
-0.0990981
-0.0981729
-0.0969633
-0.0955015
-0.0938204
-0.0919524
-0.0899278
-0.0877738
-0.0855135
-0.0831659
-0.0807463
-0.0782661
-0.0757342
-0.0731571
-0.0705401
-0.0678873
-0.0652029
-0.0624916
-0.0597588
-0.057012
-0.0542604
-0.0515165
-0.0487955
-0.0461162
-0.0435005
-0.0409714
-0.0385508
-0.0362554
-0.0340936
-0.0320635
-0.0301539
-0.0283512
-0.0266075
-0.0249143
-0.0232735
-0.0217075
-0.0202534
-0.018941
-0.0177807
-0.0167481
-0.0157895
-0.0148643
-0.0139635
-0.0131018
-0.0123019
-0.0115779
-0.0109205
-0.0103089
-0.00972314
-0.00915535
-0.00860649
-0.00808022
-0.00757821
-0.00709794
-0.00663451
-0.00618311
-0.00574025
-0.0053039
-0.00487291
-0.00444648
-0.00402381
-0.0036041
-0.00318645
-0.00277007
-0.00235443
-0.00193922
-0.00152422
-0.00110988
-0.000695081
-0.000258428
)
;

boundaryField
{
    fixedWalls
    {
        type            zeroGradient;
    }
    inflowWall
    {
        type            zeroGradient;
    }
    outflowWall
    {
        type            fixedValue;
        value           uniform 0;
    }
    frontAndBack
    {
        type            empty;
    }
}


// ************************************************************************* //
