/*--------------------------------*- C++ -*----------------------------------*\
| =========                 |                                                 |
| \\      /  F ield         | OpenFOAM: The Open Source CFD Toolbox           |
|  \\    /   O peration     | Version:  2306                                  |
|   \\  /    A nd           | Website:  www.openfoam.com                      |
|    \\/     M anipulation  |                                                 |
\*---------------------------------------------------------------------------*/
FoamFile
{
    version     2.0;
    format      ascii;
    arch        "LSB;label=32;scalar=64";
    class       volScalarField;
    location    "1";
    object      p;
}
// * * * * * * * * * * * * * * * * * * * * * * * * * * * * * * * * * * * * * //

dimensions      [0 2 -2 0 0 0 0];

internalField   nonuniform List<scalar> 
47500
(
14.2635
8.31616
5.39826
4.19501
3.55687
3.16765
2.9173
2.74429
2.61605
2.51596
2.43484
2.36708
2.30909
2.25841
2.21332
2.17256
2.1352
2.10051
2.06794
2.03706
2.00752
1.97904
1.95138
1.92437
1.89785
1.87168
1.84576
1.82001
1.79433
1.76867
1.74297
1.71718
1.69128
1.66522
1.63901
1.61261
1.58605
1.55935
1.53257
1.50579
1.47918
1.45299
1.4276
1.40363
1.38186
1.363
1.34745
1.33358
1.2884
1.04327
9.4951
7.11982
5.49164
4.53466
3.89691
3.45612
3.14914
2.92821
2.76269
2.63423
2.53142
2.44688
2.37568
2.31444
2.26078
2.21297
2.16973
2.13011
2.09335
2.05888
2.02624
1.99506
1.96505
1.93596
1.90759
1.87977
1.85237
1.82526
1.79835
1.77154
1.74477
1.71796
1.69107
1.66403
1.63682
1.6094
1.58173
1.55379
1.52558
1.49707
1.46826
1.43912
1.40957
1.37941
1.34802
1.31384
1.27371
1.222
1.13977
0.970457
6.67605
5.93527
5.1272
4.46306
3.94451
3.54966
3.25203
3.02531
2.84922
2.70954
2.59635
2.50271
2.4237
2.35581
2.2965
2.24386
2.19649
2.1533
2.11346
2.0763
2.04131
2.00807
1.97622
1.9455
1.91568
1.88655
1.85795
1.82976
1.80184
1.7741
1.74645
1.71879
1.69107
1.66322
1.63516
1.60686
1.57823
1.54922
1.51976
1.48975
1.45905
1.42746
1.39465
1.36001
1.3225
1.28018
1.22988
1.16696
1.08269
0.962347
5.2343
5.05263
4.64951
4.21693
3.83683
3.5209
3.26391
3.05619
2.88763
2.74954
2.635
2.53865
2.45644
2.38527
2.3228
2.26724
2.2172
2.1716
2.12959
2.09048
2.05374
2.01892
1.98565
1.95365
1.92266
1.89247
1.86291
1.83382
1.80507
1.77655
1.74815
1.71978
1.69135
1.6628
1.63402
1.60496
1.57552
1.5456
1.51509
1.48385
1.45168
1.41828
1.38326
1.34596
1.30544
1.26022
1.20829
1.14713
1.07328
0.983893
4.39925
4.41397
4.22388
3.95436
3.6873
3.4449
3.23306
3.05191
2.89834
2.76816
2.65726
2.56205
2.47955
2.4073
2.34336
2.28615
2.23442
2.18717
2.14358
2.10299
2.06487
2.02877
1.99433
1.96125
1.92926
1.89815
1.86773
1.83785
1.80836
1.77913
1.75006
1.72105
1.69199
1.6628
1.63339
1.60365
1.5735
1.54281
1.51145
1.47924
1.44597
1.41134
1.37495
1.33627
1.29457
1.24893
1.19829
1.14171
1.07851
1.00975
3.87568
3.95338
3.87489
3.71212
3.52865
3.34702
3.17725
3.02415
2.88872
2.76991
2.66587
2.57455
2.494
2.42249
2.35851
2.30079
2.24827
2.20008
2.15548
2.11386
2.07473
2.03766
2.0023
1.96833
1.93552
1.90363
1.87248
1.84191
1.81177
1.78193
1.75228
1.72269
1.69309
1.66335
1.63339
1.60311
1.57239
1.5411
1.50911
1.47624
1.44228
1.40698
1.37
1.33096
1.28939
1.24481
1.19683
1.14539
1.09106
1.03588
3.53078
3.61952
3.59619
3.49995
3.37559
3.2416
3.10811
2.9815
2.8648
2.7589
2.66356
2.57793
2.50097
2.43159
2.36874
2.31148
2.25897
2.21048
2.16541
2.1232
2.08342
2.04566
2.00961
1.97497
1.94149
1.90897
1.87722
1.84608
1.81539
1.78503
1.75487
1.72482
1.69475
1.66458
1.63419
1.60348
1.57234
1.54065
1.50827
1.47505
1.44081
1.40534
1.36841
1.32978
1.2892
1.24652
1.20176
1.15529
1.10808
1.06204
3.29067
3.37292
3.3757
3.32012
3.23646
3.13839
3.03456
2.93123
2.83218
2.73932
2.65338
2.57442
2.50207
2.43578
2.37493
2.31887
2.26701
2.21877
2.17366
2.13124
2.09111
2.05294
2.01642
1.98128
1.94731
1.91429
1.88205
1.85044
1.8193
1.78851
1.75795
1.72751
1.69708
1.66656
1.63585
1.60486
1.57346
1.54156
1.50902
1.47573
1.44154
1.4063
1.36988
1.33216
1.29307
1.25265
1.21115
1.16911
1.12751
1.0879
3.11482
3.18638
3.20095
3.17006
3.11406
3.04248
2.9621
2.87838
2.79509
2.71452
2.63795
2.56598
2.49877
2.43617
2.3779
2.32361
2.27287
2.22532
2.18055
2.13823
2.09803
2.05966
2.02286
1.9874
1.95307
1.91968
1.88706
1.85508
1.82358
1.79245
1.76156
1.73082
1.70012
1.66937
1.63846
1.6073
1.57579
1.54384
1.51135
1.47822
1.44434
1.40964
1.37405
1.33753
1.30015
1.26206
1.22361
1.18536
1.14817
1.11323
2.98096
3.04207
3.06141
3.0455
3.00818
2.95593
2.89376
2.82614
2.75644
2.68699
2.61929
2.55425
2.49234
2.43374
2.37842
2.32625
2.27702
2.23047
2.18634
2.14438
2.10434
2.06597
2.02906
1.99342
1.95886
1.92521
1.89232
1.86005
1.82828
1.79689
1.76577
1.73481
1.70393
1.67303
1.64201
1.61081
1.57932
1.54748
1.51519
1.4824
1.44905
1.41508
1.3805
1.34534
1.30973
1.27389
1.23816
1.2031
1.16941
1.13798
2.87614
2.92826
2.94894
2.9421
2.91743
2.87921
2.83103
2.77642
2.71821
2.65855
2.59897
2.5405
2.48382
2.42931
2.37713
2.32732
2.27983
2.23454
2.19128
2.14988
2.11018
2.07198
2.03511
1.99942
1.96474
1.93093
1.89786
1.86539
1.83343
1.80186
1.77057
1.73948
1.70849
1.67753
1.64651
1.61536
1.584
1.55238
1.52044
1.48813
1.45542
1.42232
1.38885
1.35509
1.32121
1.28744
1.25413
1.22173
1.19084
1.16212
2.79236
2.83705
2.85746
2.85612
2.84003
2.81199
2.77453
2.73031
2.68167
2.63047
2.57814
2.52576
2.47407
2.42357
2.37457
2.32724
2.28165
2.23777
2.19555
2.15488
2.11567
2.07777
2.04107
2.00544
1.97074
1.93686
1.90369
1.87111
1.83903
1.80734
1.77596
1.7448
1.71378
1.68284
1.65189
1.62088
1.58975
1.55845
1.52694
1.4952
1.46323
1.43105
1.39872
1.36635
1.3341
1.30221
1.27099
1.24084
1.21222
1.18562
2.72441
2.76304
2.78245
2.78442
2.77419
2.75357
2.72428
2.68833
2.64758
2.60359
2.55765
2.51077
2.46372
2.41706
2.37119
2.32637
2.28274
2.24038
2.19931
2.15949
2.12088
2.08341
2.04697
2.01149
1.97687
1.943
1.9098
1.87718
1.84504
1.8133
1.78189
1.75073
1.71975
1.68889
1.65808
1.62728
1.59644
1.56553
1.53452
1.50342
1.47223
1.44099
1.40979
1.37874
1.34799
1.31778
1.28838
1.26011
1.23334
1.20846
2.66873
2.70242
2.72057
2.7245
2.71829
2.70309
2.68005
2.65066
2.61637
2.57847
2.53807
2.49609
2.45328
2.41023
2.36735
2.32498
2.28333
2.24253
2.20268
2.16379
2.12588
2.0889
2.05282
2.01757
1.98309
1.94931
1.91615
1.88354
1.85141
1.81969
1.7883
1.7572
1.72631
1.69558
1.66497
1.63443
1.60394
1.57347
1.54301
1.51256
1.48217
1.45187
1.42175
1.39193
1.36256
1.33383
1.306
1.27932
1.25408
1.23059
2.62281
2.65247
2.6693
2.67437
2.67093
2.65971
2.64146
2.61726
2.58824
2.55544
2.5198
2.48213
2.44314
2.40339
2.36333
2.32331
2.28359
2.24436
2.20575
2.16784
2.13067
2.09426
2.0586
2.02365
1.98938
1.95574
1.92268
1.89014
1.85807
1.82641
1.79511
1.7641
1.73335
1.70281
1.67244
1.64222
1.61211
1.5821
1.55221
1.52244
1.49282
1.46343
1.43433
1.40565
1.37751
1.35011
1.32363
1.29829
1.27434
1.25199
2.58481
2.61116
2.62674
2.63243
2.63092
2.62263
2.60805
2.58797
2.56323
2.53468
2.50309
2.46918
2.43358
2.39682
2.35935
2.32153
2.28366
2.24596
2.20859
2.17167
2.13528
2.09948
2.06427
2.02967
1.99566
1.96222
1.92931
1.89689
1.86493
1.83338
1.8022
1.77134
1.74077
1.71046
1.68037
1.65048
1.62078
1.59127
1.56194
1.53284
1.50399
1.47545
1.44731
1.41966
1.39264
1.36639
1.34108
1.3169
1.29402
1.27262
2.55338
2.57701
2.59144
2.59744
2.59726
2.59116
2.5794
2.56256
2.5413
2.51626
2.4881
2.45742
2.42479
2.3907
2.35558
2.3198
2.28366
2.24741
2.21124
2.1753
2.1397
2.10452
2.06981
2.03559
2.00188
1.96867
1.93595
1.9037
1.87189
1.84049
1.80946
1.77879
1.74844
1.71838
1.6886
1.65907
1.6298
1.60078
1.57203
1.54358
1.51546
1.48773
1.46047
1.43377
1.40774
1.38251
1.35822
1.33501
1.31305
1.29245
2.52747
2.54887
2.56229
2.5684
2.56915
2.56467
2.55509
2.54082
2.52235
2.50021
2.47491
2.44698
2.41692
2.38517
2.35215
2.31822
2.28367
2.24877
2.21374
2.17874
2.14391
2.10936
2.07515
2.04134
2.00795
1.97501
1.94252
1.91046
1.87884
1.84762
1.8168
1.78634
1.75624
1.72646
1.69701
1.66786
1.63902
1.6105
1.58231
1.55449
1.52706
1.50009
1.47364
1.44779
1.42265
1.39832
1.37491
1.35255
1.33136
1.31144
2.5063
2.52588
2.53843
2.54454
2.54593
2.54265
2.53474
2.5225
2.50627
2.48648
2.46356
2.43795
2.41008
2.38036
2.34918
2.31687
2.28376
2.2501
2.21612
2.18201
2.14791
2.11397
2.08026
2.04686
2.01382
1.98116
1.94892
1.91709
1.88568
1.85468
1.82408
1.79387
1.76403
1.73456
1.70545
1.67669
1.6483
1.62027
1.59263
1.5654
1.53863
1.51236
1.48665
1.46158
1.43724
1.4137
1.39106
1.36943
1.3489
1.32955
2.48926
2.50737
2.51917
2.52522
2.52706
2.52468
2.51805
2.50737
2.49293
2.47504
2.45406
2.43036
2.40433
2.37633
2.34672
2.31584
2.28398
2.25142
2.21839
2.18509
2.15168
2.11831
2.08509
2.0521
2.0194
1.98705
1.95507
1.92349
1.89232
1.86156
1.83121
1.80126
1.77171
1.74256
1.71381
1.68545
1.65749
1.62995
1.60283
1.57618
1.55003
1.52441
1.49939
1.47502
1.45138
1.42855
1.40659
1.38559
1.36563
1.34677
2.47587
2.49281
2.504
2.50996
2.51211
2.51038
2.50472
2.49526
2.48221
2.46582
2.44639
2.42424
2.39971
2.37313
2.34485
2.31517
2.28439
2.25278
2.22058
2.188
2.15521
2.12237
2.0896
2.057
2.02464
1.99259
1.9609
1.92958
1.89866
1.86816
1.83807
1.80841
1.77917
1.75036
1.72197
1.69401
1.66648
1.63941
1.61281
1.58671
1.56113
1.53612
1.51172
1.48799
1.46499
1.44278
1.42142
1.40098
1.38151
1.36307
2.46578
2.48181
2.49252
2.4984
2.50075
2.49949
2.49455
2.486
2.474
2.45877
2.44054
2.4196
2.39626
2.37082
2.34359
2.31489
2.285
2.25419
2.22269
2.19073
2.15848
2.12611
2.09375
2.06152
2.02949
1.99774
1.96632
1.93527
1.90462
1.87439
1.84459
1.81523
1.78631
1.75784
1.72982
1.70226
1.67517
1.64856
1.62245
1.59686
1.57183
1.54738
1.52356
1.50042
1.47799
1.45633
1.4355
1.41554
1.3965
1.37842
2.45872
2.47409
2.48443
2.49023
2.49271
2.49179
2.48735
2.47945
2.46821
2.45382
2.43648
2.41644
2.39398
2.3694
2.34299
2.31505
2.28585
2.25567
2.22474
2.19328
2.16148
2.12952
2.09752
2.06562
2.03389
2.00243
1.97129
1.94052
1.91014
1.88019
1.85069
1.82163
1.79304
1.76492
1.73728
1.71012
1.68345
1.65729
1.63166
1.60657
1.58205
1.55812
1.53483
1.51221
1.4903
1.46914
1.44877
1.42924
1.41058
1.39282
2.4545
2.46942
2.47952
2.48526
2.48782
2.4871
2.48298
2.47551
2.46477
2.45093
2.43418
2.41475
2.3929
2.36891
2.34307
2.31565
2.28695
2.25723
2.22672
2.19565
2.16421
2.13257
2.10088
2.06927
2.03782
2.00663
1.97576
1.94526
1.91516
1.8855
1.85629
1.82756
1.7993
1.77153
1.74427
1.7175
1.69126
1.66554
1.64036
1.61574
1.5917
1.56826
1.54546
1.52332
1.50188
1.48117
1.46122
1.44206
1.42373
1.40624
2.45299
2.46768
2.47765
2.48335
2.48595
2.48533
2.48137
2.47411
2.46363
2.45008
2.43364
2.41453
2.39301
2.36935
2.34382
2.31672
2.28832
2.25888
2.22865
2.19784
2.16665
2.13526
2.10382
2.07245
2.04125
2.01031
1.97969
1.94945
1.91963
1.89026
1.86136
1.83295
1.80503
1.77762
1.75073
1.72436
1.69852
1.67323
1.64849
1.62432
1.60073
1.57775
1.5554
1.53371
1.51269
1.49238
1.4728
1.45398
1.43594
1.41869
2.45413
2.4688
2.47876
2.48445
2.48703
2.48642
2.48247
2.47522
2.46476
2.45124
2.43484
2.41578
2.39431
2.37071
2.34527
2.31826
2.28996
2.26063
2.23052
2.19985
2.16881
2.13759
2.10632
2.07514
2.04415
2.01343
1.98306
1.95308
1.92353
1.89445
1.86585
1.83776
1.81019
1.78314
1.75662
1.73064
1.7052
1.68032
1.656
1.63226
1.6091
1.58655
1.56461
1.54333
1.5227
1.50275
1.48351
1.46499
1.4472
1.43016
2.45792
2.47278
2.48283
2.48853
2.49108
2.49036
2.48626
2.47883
2.46816
2.45441
2.43777
2.41848
2.3968
2.37301
2.3474
2.32026
2.29186
2.26247
2.23233
2.20167
2.17068
2.13953
2.10838
2.07734
2.04652
2.016
1.98585
1.95611
1.92683
1.89804
1.86975
1.84199
1.81475
1.78806
1.76191
1.73631
1.71127
1.68678
1.66287
1.63953
1.61677
1.59462
1.57308
1.55216
1.53189
1.51227
1.49333
1.47507
1.45752
1.44066
2.46441
2.47966
2.48992
2.49567
2.49813
2.49721
2.4928
2.48498
2.47385
2.45961
2.44246
2.42266
2.40049
2.37624
2.35022
2.32272
2.29402
2.26439
2.23408
2.2033
2.17225
2.1411
2.10999
2.07905
2.04836
2.018
1.98805
1.95855
1.92953
1.90102
1.87304
1.8456
1.8187
1.79236
1.76658
1.74135
1.71669
1.69259
1.66906
1.64611
1.62373
1.60195
1.58077
1.5602
1.54025
1.52093
1.50226
1.48424
1.46689
1.4502
2.47372
2.48958
2.50017
2.50598
2.5083
2.50706
2.50217
2.49372
2.48188
2.46685
2.44889
2.42829
2.40535
2.38038
2.3537
2.32562
2.29642
2.26639
2.23575
2.20473
2.17353
2.14229
2.11116
2.08025
2.04966
2.01945
1.98968
1.9604
1.93163
1.9034
1.87572
1.84859
1.82203
1.79604
1.77062
1.74575
1.72146
1.69773
1.67457
1.65198
1.62997
1.60854
1.58769
1.56744
1.54778
1.52874
1.51031
1.4925
1.47533
1.45878
2.48603
2.50275
2.51379
2.51967
2.52178
2.52006
2.51447
2.50515
2.4923
2.47618
2.45711
2.43539
2.41137
2.3854
2.35782
2.32893
2.29904
2.26843
2.23733
2.20596
2.17449
2.14309
2.11189
2.08097
2.05044
2.02035
1.99075
1.96167
1.93314
1.90518
1.8778
1.85099
1.82476
1.79911
1.77403
1.74952
1.72558
1.70221
1.6794
1.65716
1.63548
1.61438
1.59384
1.57387
1.55449
1.53569
1.51748
1.49987
1.48285
1.46643
2.50159
2.51943
2.53105
2.537
2.5388
2.53643
2.52989
2.51939
2.5052
2.48765
2.46711
2.44394
2.41854
2.39129
2.36254
2.33262
2.30185
2.2705
2.2388
2.20696
2.17515
2.14352
2.11218
2.08122
2.05071
2.02071
1.99126
1.96238
1.93409
1.90639
1.87929
1.85279
1.82688
1.80156
1.77683
1.75266
1.72907
1.70603
1.68356
1.66164
1.64028
1.61947
1.59922
1.57953
1.56039
1.54181
1.5238
1.50635
1.48947
1.47316
2.52076
2.54003
2.55236
2.55835
2.55969
2.55644
2.54865
2.53661
2.52069
2.50131
2.47892
2.45394
2.42683
2.39799
2.36781
2.33664
2.3048
2.27255
2.24012
2.20772
2.17548
2.14355
2.11203
2.08099
2.05049
2.02057
1.99125
1.96255
1.93448
1.90704
1.88023
1.85403
1.82843
1.80344
1.77903
1.75519
1.73193
1.70922
1.68706
1.66545
1.64438
1.62385
1.60386
1.58441
1.56549
1.54711
1.52928
1.51198
1.49522
1.479
2.544
2.56504
2.57821
2.58419
2.58489
2.58044
2.571
2.55698
2.53888
2.51722
2.49253
2.46535
2.43616
2.40543
2.37357
2.34093
2.30783
2.27454
2.24127
2.2082
2.17548
2.1432
2.11146
2.08031
2.04979
2.01993
1.99074
1.96222
1.93436
1.90717
1.88063
1.85473
1.82944
1.80475
1.78066
1.75714
1.73418
1.71178
1.68991
1.66859
1.64779
1.62752
1.60777
1.58853
1.56982
1.55162
1.53394
1.51677
1.50012
1.48398
2.5719
2.59513
2.60928
2.61513
2.6149
2.60885
2.59726
2.58072
2.55988
2.53541
2.50795
2.47811
2.44648
2.41353
2.37971
2.34539
2.31087
2.2764
2.24219
2.20839
2.17511
2.14245
2.11046
2.07918
2.04863
2.01882
1.98975
1.9614
1.93376
1.90681
1.88054
1.85491
1.82992
1.80553
1.78174
1.75852
1.73585
1.71374
1.69215
1.67109
1.65054
1.6305
1.61097
1.59193
1.5734
1.55536
1.53781
1.52076
1.50419
1.48812
2.60525
2.63115
2.64642
2.65195
2.65039
2.64218
2.6278
2.60806
2.58381
2.5559
2.5251
2.49215
2.45765
2.42216
2.38612
2.34991
2.31381
2.27806
2.24282
2.20822
2.17436
2.14129
2.10903
2.07762
2.04703
2.01727
1.98831
1.96012
1.93269
1.90598
1.87997
1.85462
1.82991
1.80581
1.7823
1.75936
1.73698
1.71512
1.69379
1.67297
1.65266
1.63283
1.61349
1.59463
1.57626
1.55835
1.54092
1.52396
1.50747
1.49145
2.64507
2.67423
2.69073
2.69563
2.69216
2.68103
2.66301
2.63921
2.61075
2.57867
2.54391
2.5073
2.46952
2.43116
2.39265
2.35436
2.31655
2.27941
2.24309
2.20766
2.17319
2.13969
2.10717
2.07562
2.045
2.01528
1.98644
1.95842
1.9312
1.90472
1.87896
1.85388
1.82944
1.80561
1.78237
1.7597
1.73757
1.71597
1.69487
1.67427
1.65416
1.63453
1.61536
1.59666
1.57842
1.56064
1.54331
1.52643
1.51
1.49401
2.69271
2.72586
2.74366
2.74742
2.74118
2.72609
2.70334
2.6744
2.64073
2.60363
2.5642
2.52336
2.48187
2.4403
2.39908
2.35855
2.31892
2.28034
2.2429
2.20663
2.17155
2.13763
2.10486
2.07318
2.04253
2.01288
1.98416
1.95631
1.92929
1.90305
1.87754
1.85271
1.82853
1.80496
1.78198
1.75956
1.73767
1.71629
1.69541
1.67501
1.65509
1.63562
1.61661
1.59805
1.57992
1.56224
1.54499
1.52818
1.5118
1.49584
2.74999
2.78804
2.80708
2.80888
2.79863
2.77816
2.7492
2.71376
2.6737
2.63058
2.58569
2.54003
2.49438
2.44929
2.40517
2.36227
2.32075
2.2807
2.24213
2.20504
2.16937
2.13507
2.10206
2.07028
2.03964
2.01006
1.98148
1.95381
1.927
1.90099
1.87572
1.85114
1.82721
1.80389
1.78115
1.75896
1.73729
1.71612
1.69544
1.67522
1.65546
1.63614
1.61727
1.59882
1.5808
1.5632
1.54602
1.52925
1.5129
1.49697
2.81941
2.86349
2.88351
2.882
2.86592
2.83807
2.80098
2.75733
2.70944
2.65917
2.60796
2.55686
2.50663
2.45777
2.41058
2.36524
2.32182
2.28031
2.24065
2.20278
2.16657
2.13193
2.09875
2.06691
2.0363
2.00682
1.97839
1.95092
1.92433
1.89855
1.87352
1.84919
1.8255
1.80242
1.7799
1.75793
1.73646
1.71549
1.69498
1.67492
1.65531
1.63612
1.61736
1.59901
1.58107
1.56354
1.54641
1.52968
1.51336
1.49743
2.90451
2.95599
2.97629
2.96929
2.94465
2.90665
2.8589
2.8049
2.7475
2.68883
2.63041
2.57328
2.5181
2.46525
2.41492
2.36713
2.32185
2.27895
2.23829
2.19972
2.16306
2.12816
2.09486
2.06301
2.03248
2.00314
1.9749
1.94764
1.92128
1.89574
1.87095
1.84686
1.82341
1.80055
1.77826
1.75648
1.73521
1.7144
1.69406
1.67414
1.65466
1.63558
1.61692
1.59865
1.58078
1.5633
1.54621
1.5295
1.51319
1.49725
3.01049
3.07096
3.08991
3.07385
3.0366
2.98461
2.9229
2.85594
2.7871
2.71867
2.65216
2.58847
2.52808
2.47115
2.41769
2.36754
2.32051
2.27636
2.23484
2.1957
2.1587
2.12364
2.09031
2.05853
2.02814
1.99899
1.97097
1.94395
1.91784
1.89255
1.86802
1.84417
1.82095
1.79831
1.77622
1.75464
1.73354
1.7129
1.69269
1.67291
1.65353
1.63456
1.61597
1.59777
1.57995
1.56251
1.54545
1.52875
1.51244
1.49649
3.14535
3.21625
3.23045
3.19944
3.14353
3.07225
2.99237
2.90935
2.82693
2.74739
2.67201
2.60139
2.53568
2.47474
2.4183
2.366
2.31744
2.27225
2.23006
2.19053
2.15336
2.11827
2.08502
2.05341
2.02323
1.99433
1.96657
1.93983
1.914
1.88898
1.86471
1.84111
1.81812
1.79571
1.77382
1.75242
1.73148
1.71099
1.69091
1.67124
1.65197
1.63307
1.61455
1.5964
1.57862
1.56121
1.54415
1.52746
1.51114
1.49517
3.32201
3.40361
3.40603
3.35036
3.26683
3.16909
3.06579
2.96316
2.86498
2.77314
2.68837
2.61071
2.53982
2.47515
2.41607
2.36195
2.31221
2.26629
2.2237
2.18402
2.14686
2.11192
2.07889
2.04755
2.01768
1.9891
1.96167
1.93525
1.90973
1.88501
1.86101
1.83767
1.81493
1.79273
1.77104
1.74982
1.72904
1.70869
1.68873
1.66917
1.64997
1.63115
1.61268
1.59458
1.57682
1.55942
1.54237
1.52567
1.50932
1.49333
3.56274
3.65085
3.62719
3.5309
3.4067
3.27305
3.14009
3.01417
2.8983
2.79338
2.69914
2.61476
2.5392
2.47136
2.41021
2.35481
2.30435
2.2581
2.21547
2.17593
2.13904
2.10444
2.0718
2.04087
2.01142
1.98325
1.95622
1.93017
1.90501
1.88062
1.85693
1.83386
1.81137
1.7894
1.7679
1.74686
1.72624
1.70601
1.68617
1.6667
1.64758
1.62882
1.6104
1.59232
1.57458
1.55718
1.54012
1.52341
1.50703
1.491
3.90805
3.98517
3.90639
3.7436
3.5603
3.37902
3.20975
3.05729
2.92263
2.80472
2.7017
2.61155
2.53231
2.46225
2.39987
2.34393
2.29337
2.24732
2.20507
2.16603
2.1297
2.09568
2.06363
2.03327
2.00437
1.97672
1.95016
1.92456
1.8998
1.87578
1.85242
1.82966
1.80743
1.7857
1.76441
1.74355
1.72308
1.70298
1.68325
1.66386
1.64481
1.6261
1.60771
1.58966
1.57192
1.55452
1.53744
1.5207
1.50429
1.48822
4.43182
4.44604
4.25571
3.98619
3.71929
3.4772
3.2658
3.08521
2.93233
2.80294
2.69298
2.59884
2.51753
2.44664
2.38421
2.32868
2.2788
2.23359
2.19225
2.15412
2.11869
2.08553
2.05429
2.02468
1.99646
1.96945
1.94346
1.91838
1.89409
1.87049
1.8475
1.82506
1.80312
1.78163
1.76057
1.73989
1.71957
1.69961
1.67998
1.66068
1.64169
1.62302
1.60466
1.58661
1.56888
1.55146
1.53436
1.51759
1.50114
1.48501
5.26689
5.0848
4.68149
4.2489
3.86892
3.55324
3.2966
3.08934
2.92135
2.78396
2.67025
2.57486
2.49374
2.42382
2.36276
2.30877
2.26048
2.21682
2.17694
2.14017
2.10599
2.07398
2.04377
2.0151
1.98772
1.96146
1.93615
1.91166
1.8879
1.86476
1.84218
1.8201
1.79847
1.77725
1.75641
1.73592
1.71577
1.69594
1.67641
1.65719
1.63826
1.61963
1.60129
1.58325
1.56551
1.54807
1.53094
1.51412
1.49762
1.48144
6.70848
5.96739
5.15915
4.49497
3.97647
3.58176
3.28437
3.058
2.88237
2.74328
2.63081
2.53802
2.46001
2.39327
2.33525
2.28408
2.23835
2.19698
2.15915
2.12421
2.09165
2.06107
2.03213
2.00458
1.97819
1.9528
1.92826
1.90445
1.88127
1.85865
1.83652
1.81482
1.79353
1.77259
1.75199
1.7317
1.71171
1.69201
1.67259
1.65344
1.63457
1.61597
1.59765
1.5796
1.56185
1.54438
1.52721
1.51034
1.49378
1.47754
9.52727
7.15175
5.52337
4.56625
3.92843
3.48766
3.18079
2.96009
2.79492
2.66693
2.56473
2.48093
2.41062
2.35041
2.29793
2.25147
2.20975
2.17182
2.13693
2.10453
2.07417
2.04549
2.0182
1.99209
1.96695
1.94264
1.91905
1.89606
1.87359
1.85159
1.82999
1.80875
1.78784
1.76724
1.74691
1.72685
1.70704
1.68749
1.66817
1.64911
1.63029
1.61172
1.5934
1.57535
1.55757
1.54006
1.52284
1.50591
1.48928
1.47296
14.2955
8.34782
5.4296
4.22605
3.58767
3.19831
2.94793
2.77502
2.64699
2.54725
2.46661
2.39948
2.34224
2.29247
2.24843
2.20888
2.17288
2.13972
2.10886
2.07988
2.05242
2.02623
2.00109
1.97681
1.95327
1.93034
1.90793
1.88597
1.86438
1.84314
1.82219
1.80151
1.78106
1.76085
1.74085
1.72105
1.70146
1.68207
1.66288
1.64391
1.62514
1.6066
1.58828
1.57021
1.55238
1.53482
1.51753
1.50052
1.4838
1.46739
1.01266
1.01221
1.01134
1.01027
1.00922
1.00831
1.00766
1.00733
1.00735
1.00776
1.00856
1.00975
1.01134
1.01331
1.01565
1.01834
1.02136
1.0247
1.02831
1.0322
1.03632
1.04066
1.04519
1.04988
1.05473
1.05969
1.06475
1.06988
1.07507
1.0803
1.08554
1.09077
1.09598
1.10116
1.10627
1.11132
1.11628
1.12115
1.1259
1.13054
1.13504
1.13939
1.1436
1.14765
1.15153
1.15524
1.15877
1.16212
1.16527
1.16824
1.17101
1.17359
1.17597
1.17815
1.18013
1.1819
1.18348
1.18486
1.18604
1.18703
1.18782
1.18841
1.18882
1.18904
1.18908
1.18894
1.18862
1.18813
1.18747
1.18665
1.18567
1.18453
1.18323
1.1818
1.18022
1.1785
1.17665
1.17467
1.17257
1.17034
1.16801
1.16556
1.16301
1.16036
1.15762
1.15478
1.15185
1.14885
1.14576
1.1426
1.13937
1.13607
1.13271
1.1293
1.12582
1.1223
1.11872
1.1151
1.11144
1.10775
1.10401
1.10024
1.09645
1.09262
1.08877
1.0849
1.08101
1.07711
1.07318
1.06925
1.0653
1.06134
1.05738
1.05341
1.04943
1.04545
1.04148
1.0375
1.03352
1.02955
1.02557
1.02161
1.01765
1.01369
1.00975
1.00581
1.00188
0.997965
0.994057
0.990161
0.986276
0.982404
0.978544
0.974697
0.970864
0.967044
0.963239
0.959448
0.955671
0.951909
0.948162
0.94443
0.940713
0.937011
0.933325
0.929654
0.925998
0.922357
0.918732
0.915121
0.911526
0.907946
0.904381
0.900831
0.897295
0.893774
0.890267
0.886775
0.883296
0.879832
0.876381
0.872944
0.86952
0.866109
0.862711
0.859326
0.855953
0.852593
0.849244
0.845908
0.842583
0.83927
0.835967
0.832676
0.829395
0.826125
0.822865
0.819615
0.816375
0.813144
0.809922
0.80671
0.803506
0.800311
0.797125
0.793947
0.790776
0.787614
0.784459
0.781311
0.778171
0.775037
0.77191
0.76879
0.765676
0.762568
0.759466
0.75637
0.75328
0.750195
0.747115
0.74404
0.74097
0.737905
0.734844
0.731788
0.728736
0.725688
0.722644
0.719604
0.716567
0.713534
0.710505
0.707478
0.704455
0.701434
0.698417
0.695402
0.69239
0.689381
0.686373
0.683369
0.680366
0.677365
0.674367
0.67137
0.668375
0.665382
0.66239
0.6594
0.656412
0.653424
0.650438
0.647454
0.64447
0.641488
0.638506
0.635525
0.632546
0.629567
0.626589
0.623612
0.620635
0.617659
0.614683
0.611708
0.608734
0.605759
0.602785
0.599812
0.596839
0.593865
0.590893
0.58792
0.584947
0.581975
0.579003
0.57603
0.573058
0.570086
0.567113
0.564141
0.561169
0.558196
0.555223
0.55225
0.549278
0.546304
0.543331
0.540358
0.537384
0.53441
0.531436
0.528461
0.525487
0.522511
0.519536
0.51656
0.513585
0.510608
0.507632
0.504655
0.501678
0.4987
0.495722
0.492744
0.489766
0.486787
0.483807
0.480828
0.477848
0.474868
0.471887
0.468906
0.465925
0.462943
0.459961
0.456978
0.453995
0.451012
0.448029
0.445045
0.442061
0.439076
0.436091
0.433106
0.43012
0.427134
0.424148
0.421162
0.418175
0.415187
0.4122
0.409212
0.406224
0.403235
0.400247
0.397258
0.394268
0.391279
0.388289
0.385298
0.382308
0.379317
0.376326
0.373335
0.370344
0.367352
0.36436
0.361368
0.358375
0.355382
0.352389
0.349396
0.346403
0.343409
0.340415
0.337421
0.334427
0.331432
0.328438
0.325443
0.322448
0.319452
0.316457
0.313461
0.310466
0.30747
0.304474
0.301478
0.298481
0.295485
0.292488
0.289491
0.286494
0.283497
0.2805
0.277502
0.274505
0.271507
0.268509
0.265511
0.262513
0.259515
0.256517
0.253518
0.25052
0.247522
0.244523
0.241524
0.238525
0.235526
0.232527
0.229528
0.226529
0.22353
0.22053
0.217531
0.214532
0.211532
0.208532
0.205533
0.202533
0.199533
0.196533
0.193533
0.190533
0.187533
0.184533
0.181533
0.178533
0.175533
0.172532
0.169532
0.166532
0.163532
0.160531
0.157531
0.15453
0.15153
0.148529
0.145529
0.142528
0.139528
0.136527
0.133527
0.130526
0.127526
0.124525
0.121524
0.118524
0.115523
0.112523
0.109522
0.106521
0.103521
0.10052
0.0975192
0.0945185
0.0915179
0.0885172
0.0855165
0.0825159
0.0795152
0.0765146
0.0735139
0.0705133
0.0675126
0.0645119
0.0615113
0.0585106
0.05551
0.0525093
0.0495087
0.0465081
0.0435076
0.040507
0.0375064
0.0345059
0.0315053
0.0285048
0.0255042
0.0225037
0.0195031
0.0165026
0.013502
0.0105015
0.00750102
0.00450054
0.00150013
1.01312
1.01266
1.01197
1.01118
1.01041
1.00977
1.00934
1.00919
1.00934
1.00983
1.01067
1.01186
1.01342
1.01532
1.01756
1.02013
1.02301
1.02618
1.02962
1.03331
1.03723
1.04136
1.04568
1.05016
1.05478
1.05952
1.06436
1.06928
1.07425
1.07927
1.0843
1.08934
1.09436
1.09935
1.10429
1.10917
1.11397
1.11868
1.1233
1.12779
1.13217
1.13641
1.14051
1.14446
1.14825
1.15188
1.15534
1.15862
1.16173
1.16464
1.16738
1.16992
1.17227
1.17443
1.1764
1.17817
1.17975
1.18113
1.18232
1.18332
1.18414
1.18476
1.1852
1.18545
1.18553
1.18543
1.18516
1.18471
1.1841
1.18333
1.18241
1.18132
1.18009
1.17872
1.1772
1.17554
1.17376
1.17185
1.16981
1.16766
1.16539
1.16301
1.16053
1.15795
1.15527
1.1525
1.14965
1.14671
1.14369
1.1406
1.13743
1.1342
1.13091
1.12755
1.12414
1.12068
1.11716
1.11361
1.11001
1.10636
1.10269
1.09898
1.09523
1.09146
1.08767
1.08385
1.08001
1.07615
1.07227
1.06838
1.06448
1.06056
1.05664
1.05271
1.04877
1.04483
1.04089
1.03695
1.03301
1.02907
1.02513
1.02119
1.01726
1.01334
1.00942
1.00551
1.00161
0.997714
0.99383
0.989956
0.986094
0.982242
0.978402
0.974575
0.97076
0.966957
0.963169
0.959393
0.955632
0.951884
0.948151
0.944432
0.940727
0.937037
0.933361
0.929701
0.926054
0.922423
0.918806
0.915204
0.911617
0.908044
0.904485
0.900941
0.897411
0.893895
0.890393
0.886905
0.883431
0.87997
0.876523
0.873089
0.869668
0.866259
0.862863
0.85948
0.856109
0.85275
0.849403
0.846067
0.842743
0.83943
0.836128
0.832837
0.829556
0.826285
0.823025
0.819774
0.816533
0.813302
0.810079
0.806866
0.803661
0.800465
0.797277
0.794097
0.790925
0.787761
0.784604
0.781455
0.778312
0.775177
0.772048
0.768926
0.76581
0.7627
0.759596
0.756498
0.753405
0.750318
0.747236
0.744159
0.741087
0.738019
0.734956
0.731898
0.728844
0.725793
0.722747
0.719705
0.716666
0.713631
0.710599
0.70757
0.704545
0.701522
0.698502
0.695485
0.692471
0.68946
0.68645
0.683443
0.680439
0.677436
0.674436
0.671437
0.66844
0.665445
0.662452
0.65946
0.656469
0.65348
0.650493
0.647506
0.644521
0.641537
0.638554
0.635572
0.63259
0.62961
0.626631
0.623652
0.620674
0.617696
0.614719
0.611743
0.608767
0.605791
0.602816
0.599841
0.596867
0.593893
0.590919
0.587945
0.584971
0.581998
0.579025
0.576051
0.573078
0.570105
0.567132
0.564158
0.561185
0.558212
0.555238
0.552265
0.549291
0.546317
0.543343
0.540369
0.537394
0.53442
0.531445
0.52847
0.525495
0.522519
0.519543
0.516567
0.51359
0.510614
0.507637
0.504659
0.501682
0.498704
0.495725
0.492747
0.489768
0.486789
0.483809
0.480829
0.477849
0.474868
0.471887
0.468906
0.465924
0.462942
0.45996
0.456977
0.453994
0.451011
0.448027
0.445043
0.442059
0.439074
0.436089
0.433104
0.430118
0.427132
0.424145
0.421159
0.418172
0.415184
0.412197
0.409209
0.40622
0.403232
0.400243
0.397254
0.394264
0.391275
0.388285
0.385295
0.382304
0.379313
0.376322
0.373331
0.37034
0.367348
0.364356
0.361364
0.358371
0.355378
0.352385
0.349392
0.346398
0.343405
0.340411
0.337417
0.334423
0.331428
0.328433
0.325439
0.322444
0.319448
0.316453
0.313458
0.310462
0.307466
0.30447
0.301474
0.298477
0.295481
0.292484
0.289487
0.28649
0.283493
0.280496
0.277499
0.274501
0.271503
0.268506
0.265508
0.26251
0.259512
0.256514
0.253515
0.250517
0.247519
0.24452
0.241521
0.238523
0.235524
0.232525
0.229526
0.226527
0.223527
0.220528
0.217529
0.214529
0.21153
0.20853
0.20553
0.202531
0.199531
0.196531
0.193531
0.190531
0.187531
0.184531
0.181531
0.178531
0.175531
0.172531
0.169531
0.16653
0.16353
0.16053
0.15753
0.154529
0.151529
0.148528
0.145528
0.142527
0.139527
0.136526
0.133526
0.130525
0.127525
0.124524
0.121524
0.118523
0.115523
0.112522
0.109521
0.106521
0.10352
0.100519
0.0975188
0.0945181
0.0915175
0.0885168
0.0855162
0.0825156
0.0795149
0.0765143
0.0735137
0.070513
0.0675124
0.0645117
0.0615111
0.0585105
0.0555098
0.0525092
0.0495086
0.046508
0.0435075
0.0405069
0.0375064
0.0345058
0.0315053
0.0285048
0.0255042
0.0225037
0.0195031
0.0165026
0.0135021
0.0105016
0.00750106
0.00450057
0.00150014
1.01399
1.01335
1.01266
1.01197
1.01134
1.01084
1.01055
1.0105
1.01074
1.01128
1.01215
1.01335
1.01487
1.01673
1.0189
1.02138
1.02415
1.02719
1.0305
1.03405
1.03781
1.04178
1.04593
1.05024
1.05469
1.05926
1.06393
1.06868
1.07349
1.07834
1.08321
1.08809
1.09296
1.0978
1.1026
1.10735
1.11202
1.11661
1.12111
1.1255
1.12978
1.13393
1.13794
1.14181
1.14553
1.1491
1.1525
1.15573
1.15878
1.16166
1.16436
1.16688
1.16921
1.17135
1.17331
1.17508
1.17665
1.17804
1.17924
1.18025
1.18108
1.18173
1.18219
1.18247
1.18258
1.18251
1.18227
1.18187
1.1813
1.18057
1.17969
1.17865
1.17747
1.17614
1.17468
1.17307
1.17134
1.16948
1.1675
1.1654
1.16319
1.16087
1.15844
1.15592
1.1533
1.15058
1.14778
1.1449
1.14194
1.1389
1.13579
1.13261
1.12937
1.12607
1.12271
1.1193
1.11584
1.11233
1.10878
1.10518
1.10155
1.09789
1.09419
1.09046
1.08671
1.08293
1.07913
1.07531
1.07148
1.06762
1.06376
1.05988
1.05599
1.0521
1.0482
1.04429
1.04038
1.03647
1.03255
1.02864
1.02473
1.02082
1.01692
1.01302
1.00912
1.00523
1.00135
0.997481
0.993618
0.989764
0.98592
0.982086
0.978263
0.974452
0.970653
0.966866
0.963092
0.95933
0.955582
0.951847
0.948125
0.944418
0.940724
0.937044
0.933378
0.929726
0.926089
0.922465
0.918856
0.915262
0.911681
0.908114
0.904562
0.901023
0.897498
0.893987
0.89049
0.887006
0.883536
0.880078
0.876634
0.873203
0.869784
0.866378
0.862985
0.859603
0.856234
0.852876
0.84953
0.846196
0.842872
0.83956
0.836258
0.832967
0.829687
0.826416
0.823156
0.819905
0.816663
0.813431
0.810208
0.806994
0.803788
0.800591
0.797402
0.794221
0.791048
0.787883
0.784725