/*--------------------------------*- C++ -*----------------------------------*\
| =========                 |                                                 |
| \\      /  F ield         | OpenFOAM: The Open Source CFD Toolbox           |
|  \\    /   O peration     | Version:  2306                                  |
|   \\  /    A nd           | Website:  www.openfoam.com                      |
|    \\/     M anipulation  |                                                 |
\*---------------------------------------------------------------------------*/
FoamFile
{
    version     2.0;
    format      ascii;
    arch        "LSB;label=32;scalar=64";
    class       volScalarField;
    location    "1";
    object      p;
}
// * * * * * * * * * * * * * * * * * * * * * * * * * * * * * * * * * * * * * //

dimensions      [0 2 -2 0 0 0 0];

internalField   nonuniform List<scalar> 
1900
(
-0.0508018
-0.0750937
-0.0955477
-0.110998
-0.12216
-0.132935
-0.143657
-0.156201
-0.169245
-0.183933
-0.0800477
-0.0882824
-0.0996556
-0.111299
-0.122469
-0.13284
-0.143541
-0.154377
-0.166325
-0.17794
-0.0890718
-0.0935873
-0.101148
-0.110583
-0.120771
-0.130887
-0.140857
-0.150664
-0.160447
-0.170025
-0.0946952
-0.0977839
-0.103466
-0.11116
-0.120081
-0.129414
-0.138723
-0.147785
-0.156576
-0.165005
-0.096825
-0.0993656
-0.104116
-0.110777
-0.118776
-0.127411
-0.136133
-0.144626
-0.152726
-0.160358
-0.0960955
-0.0985693
-0.10317
-0.10962
-0.117338
-0.125619
-0.133899
-0.141859
-0.149367
-0.156394
-0.0925478
-0.0954778
-0.10073
-0.10777
-0.115768
-0.123971
-0.131908
-0.139395
-0.146417
-0.152998
-0.0857697
-0.0900426
-0.0968948
-0.105293
-0.114012
-0.122297
-0.129947
-0.137044
-0.143727
-0.150043
-0.0755599
-0.083631
-0.0940077
-0.104374
-0.113546
-0.121474
-0.128601
-0.135337
-0.141829
-0.148021
-0.0466797
-0.0693178
-0.0889539
-0.102907
-0.112411
-0.119898
-0.12685
-0.133711
-0.140414
-0.146734
-0.211883
-0.211466
-0.212602
-0.214712
-0.217226
-0.219427
-0.220907
-0.221577
-0.221567
-0.221122
-0.220473
-0.219773
-0.219149
-0.218723
-0.218589
-0.218825
-0.219491
-0.220574
-0.222244
-0.225236
-0.23019
-0.234646
-0.237327
-0.240651
-0.247398
-0.256392
-0.264664
-0.269836
-0.2706
-0.266453
-0.25744
-0.244
-0.226816
-0.206501
-0.183705
-0.159127
-0.133526
-0.107705
-0.0825087
-0.0587398
-0.0371438
-0.0183335
-0.00277791
0.00923002
0.0175858
0.0224265
0.0240634
0.0229281
0.0195191
0.0143636
0.00797678
0.000829045
-0.00666442
-0.014146
-0.0213237
-0.028038
-0.0341595
-0.0397353
-0.0449376
-0.0501288
-0.0555305
-0.0608315
-0.0652337
-0.0679284
-0.0688181
-0.0687746
-0.0687286
-0.0690233
-0.0698178
-0.0712113
-0.0733582
-0.0763142
-0.0799867
-0.0842262
-0.0887637
-0.0934114
-0.0974681
-0.100645
-0.102508
-0.102689
-0.10089
-0.0969073
-0.0905708
-0.0823029
-0.0720241
-0.060091
-0.0468271
-0.0328444
-0.0189093
-0.00395135
-0.212277
-0.21215
-0.213646
-0.215994
-0.21854
-0.220598
-0.221802
-0.222114
-0.221691
-0.220886
-0.220021
-0.219289
-0.218759
-0.218483
-0.218555
-0.219027
-0.219937
-0.221214
-0.222172
-0.222978
-0.225897
-0.231373
-0.237684
-0.244967
-0.254273
-0.264384
-0.272763
-0.277459
-0.277472
-0.272507
-0.262876
-0.249155
-0.23171
-0.21119
-0.188246
-0.163554
-0.137839
-0.111861
-0.0864812
-0.0624983
-0.0406705
-0.0216547
-0.00596206
0.00617884
0.0146714
0.0196392
0.0213961
0.0203771
0.0170834
0.0120414
0.00576638
-0.00127036
-0.00866715
-0.016072
-0.0232464
-0.0299964
-0.0361861
-0.0417019
-0.046737
-0.0517276
-0.0570068
-0.0620972
-0.0656843
-0.0667219
-0.0659914
-0.0653988
-0.0664126
-0.0681329
-0.0695658
-0.0707298
-0.0723856
-0.0751407
-0.0789195
-0.0835176
-0.0885415
-0.0935819
-0.098105
-0.101673
-0.10387
-0.104326
-0.102751
-0.0989902
-0.092939
-0.0846194
-0.0741882
-0.06206
-0.048619
-0.0341833
-0.0201468
-0.00530175
-0.212163
-0.212597
-0.21475
-0.217668
-0.220525
-0.222634
-0.223605
-0.223456
-0.222438
-0.221021
-0.21964
-0.218559
-0.217935
-0.217823
-0.218156
-0.218723
-0.219192
-0.219451
-0.220495
-0.222508
-0.226437
-0.233042
-0.242596
-0.254461
-0.267045
-0.278224
-0.28609
-0.289514
-0.288043
-0.281744
-0.27103
-0.256338
-0.238302
-0.217492
-0.194446
-0.169736
-0.144032
-0.117959
-0.092607
-0.0686372
-0.0468331
-0.0278606
-0.0121834
-7.08613e-05
0.00839011
0.013333
0.0150846
0.0140922
0.0108489
0.00586773
-0.000349207
-0.00736665
-0.0148049
-0.0223271
-0.0296739
-0.0366463
-0.0430929
-0.0488968
-0.0541178
-0.0588405
-0.0631011
-0.0666915
-0.0688917
-0.0694162
-0.0690814
-0.0690408
-0.0691407
-0.068759
-0.0683506
-0.0694129
-0.0719966
-0.0753247
-0.0793705
-0.0842357
-0.0896323
-0.0951061
-0.10009
-0.104069
-0.106577
-0.107281
-0.105838
-0.102136
-0.0959369
-0.0875752
-0.0770351
-0.0646301
-0.0510146
-0.0360722
-0.0215687
-0.00635634
-0.211271
-0.21232
-0.21504
-0.21847
-0.221639
-0.22394
-0.224855
-0.224466
-0.22313
-0.221347
-0.219629
-0.218281
-0.217444
-0.217121
-0.217231
-0.217535
-0.217638
-0.217174
-0.216913
-0.218946
-0.224452
-0.233952
-0.246913
-0.261682
-0.275941
-0.287569
-0.295029
-0.297659
-0.29531
-0.288281
-0.277056
-0.262178
-0.244098
-0.223488
-0.200721
-0.176334
-0.150952
-0.125323
-0.100341
-0.0767942
-0.0554311
-0.0369023
-0.0216778
-0.0100148
-0.00194873
0.00269078
0.0042446
0.00316132
-8.44683e-05
-0.00501921
-0.0111901
-0.0181977
-0.0257114
-0.0334052
-0.0410001
-0.0482767
-0.055035
-0.0611609
-0.0666075
-0.0710843
-0.0744632
-0.0768244
-0.0780607
-0.078089
-0.0771328
-0.0755671
-0.0736004
-0.0719008
-0.0715052
-0.0723751
-0.0738094
-0.0762059
-0.0803389
-0.0857615
-0.0916535
-0.0974487
-0.102661
-0.106865
-0.109567
-0.110474
-0.109173
-0.10558
-0.0994385
-0.0909921
-0.0803666
-0.0676415
-0.0537535
-0.0383842
-0.0231783
-0.00738326
-0.209099
-0.210695
-0.213701
-0.217435
-0.220909
-0.223439
-0.224598
-0.224478
-0.223377
-0.221779
-0.220168
-0.218843
-0.217869
-0.217102
-0.216114
-0.214654
-0.212754
-0.210946
-0.210445
-0.213098
-0.220159
-0.231953
-0.247237
-0.26373
-0.278907
-0.290828
-0.298218
-0.300662
-0.298132
-0.291081
-0.280038
-0.265481
-0.247895
-0.227808
-0.205652
-0.181945
-0.157338
-0.132575
-0.108507
-0.0859599
-0.0656536
-0.0481905
-0.0339935
-0.0232717
-0.015996
-0.0119351
-0.0107452
-0.011991
-0.0152485
-0.0201169
-0.0262283
-0.0332531
-0.0409026
-0.0488937
-0.0569041
-0.064699
-0.0719443
-0.0783863
-0.0840236
-0.0884525
-0.091419
-0.092992
-0.093289
-0.0922424
-0.0898122
-0.0863644
-0.0827133
-0.0798906
-0.0782848
-0.0775119
-0.0777199
-0.0796457
-0.0832739
-0.0880818
-0.0936385
-0.0994887
-0.104867
-0.109223
-0.111982
-0.112927
-0.111645
-0.108032
-0.101931
-0.0934147
-0.0827645
-0.0698795
-0.0557581
-0.0402131
-0.0243889
-0.0080799
-0.207791
-0.209399
-0.212152
-0.21578
-0.21921
-0.221774
-0.223234
-0.223654
-0.223283
-0.222458
-0.221431
-0.220273
-0.218847
-0.216883
-0.214153
-0.210622
-0.20672
-0.203509
-0.202613
-0.205755
-0.213835
-0.226872
-0.243204
-0.260361
-0.275873
-0.28798
-0.295647
-0.298409
-0.296357
-0.289824
-0.279392
-0.26558
-0.248798
-0.229535
-0.208283
-0.185598
-0.162175
-0.13879
-0.116262
-0.0953851
-0.0768266
-0.0610927
-0.0485036
-0.0391649
-0.0329755
-0.0296462
-0.0288378
-0.0301727
-0.0333009
-0.0379687
-0.0439123
-0.0509283
-0.0587792
-0.0671995
-0.0758855
-0.0844866
-0.0926164
-0.0997915
-0.105755
-0.110255
-0.113097
-0.114149
-0.113428
-0.110975
-0.106932
-0.101836
-0.0965534
-0.0918501
-0.0879695
-0.0850333
-0.0835548
-0.0840092
-0.0862695
-0.0900723
-0.0949261
-0.10027
-0.105274
-0.10944
-0.112129
-0.113041
-0.111737
-0.108001
-0.101974
-0.093433
-0.0827971
-0.0700114
-0.0558836
-0.0405294
-0.0246011
-0.00827149
-0.20532
-0.207301
-0.210244
-0.214006
-0.217449
-0.220133
-0.221898
-0.22289
-0.223337
-0.223415
-0.223125
-0.22228
-0.220514
-0.217481
-0.213149
-0.207684
-0.201934
-0.197604
-0.19612
-0.19911
-0.20726
-0.220191
-0.236236
-0.253081
-0.268405
-0.280581
-0.288659
-0.292078
-0.29067
-0.284816
-0.275108
-0.262108
-0.246231
-0.227952
-0.207818
-0.186468
-0.164639
-0.143127
-0.122726
-0.104139
-0.087927
-0.0744536
-0.0638678
-0.0561379
-0.0510799
-0.0483964
-0.0477895
-0.0489899
-0.0517644
-0.05602
-0.0616768
-0.0686507
-0.076775
-0.0857675
-0.0953539
-0.105074
-0.114461
-0.12297
-0.129729
-0.134672
-0.13761
-0.138264
-0.136593
-0.132815
-0.127287
-0.120569
-0.113338
-0.106215
-0.099645
-0.0941382
-0.0901971
-0.0882177
-0.0881997
-0.0900634
-0.093303
-0.0974199
-0.10159
-0.105248
-0.107674
-0.108456
-0.107153
-0.103428
-0.0974997
-0.0891589
-0.0788672
-0.0666653
-0.0531013
-0.0385317
-0.023346
-0.00787835
-0.211386
-0.211556
-0.213782
-0.216427
-0.21884
-0.220725
-0.222114
-0.223152
-0.223993
-0.224687
-0.225019
-0.224585
-0.222847
-0.219507
-0.214289
-0.207636
-0.200885
-0.195495
-0.193533
-0.196032
-0.203467
-0.215463
-0.230332
-0.246006
-0.260449
-0.272048
-0.279774
-0.283065
-0.281838
-0.276388
-0.2672
-0.254798
-0.2397
-0.222456
-0.203659
-0.184022
-0.164263
-0.145137
-0.127361
-0.111497
-0.097963
-0.0869511
-0.0784225
-0.0722152
-0.0680939
-0.0657872
-0.0651097
-0.0659438
-0.0682214
-0.0719909
-0.0773857
-0.0844679
-0.0930989
-0.103041
-0.113945
-0.125187
-0.136078
-0.145923
-0.154093
-0.160161
-0.163541
-0.16386
-0.161216
-0.156055
-0.148892
-0.140296
-0.130838
-0.121158
-0.111838
-0.103507
-0.0966111
-0.0915886
-0.0885526
-0.0875684
-0.0882646
-0.0902727
-0.0928395
-0.0953753
-0.0971111
-0.0975298
-0.0962309
-0.0929188
-0.0876433
-0.0798228
-0.0703394
-0.0593311
-0.0470891
-0.0340535
-0.0205266
-0.00690944
-0.207417
-0.209365
-0.212588
-0.216009
-0.218735
-0.220682
-0.222045
-0.223126
-0.224135
-0.225115
-0.225733
-0.225497
-0.223904
-0.220521
-0.215317
-0.208705
-0.201928
-0.196633
-0.194517
-0.196578
-0.203105
-0.213655
-0.226639
-0.240245
-0.252693
-0.262517
-0.268836
-0.271157
-0.269376
-0.263697
-0.254631
-0.2427
-0.228481
-0.212546
-0.195515
-0.178151
-0.161078
-0.144937
-0.130254
-0.11738
-0.106589
-0.0979137
-0.0912206
-0.0862842
-0.0828379
-0.0806732
-0.0796892
-0.0799404
-0.081606
-0.0849239
-0.0901702
-0.0975813
-0.107118
-0.118529
-0.131333
-0.144725
-0.157809
-0.169546
-0.179012
-0.186585
-0.19054
-0.190581
-0.18693
-0.180169
-0.170959
-0.159973
-0.147822
-0.135266
-0.122987
-0.11164
-0.101606
-0.0932942
-0.0868694
-0.0825268
-0.0800738
-0.0792816
-0.0795349
-0.0802971
-0.0808639
-0.0807071
-0.079314
-0.0764104
-0.0716265
-0.0655914
-0.0576701
-0.0485069
-0.0383581
-0.0276111
-0.0165306
-0.00553986
-0.228416
-0.214262
-0.215543
-0.21714
-0.21886
-0.220461
-0.221771
-0.222848
-0.223728
-0.224487
-0.224858
-0.22442
-0.222796
-0.219566
-0.214862
-0.209145
-0.203471
-0.199088
-0.197199
-0.198707
-0.203763
-0.211963
-0.222089
-0.232662
-0.242194
-0.249488
-0.253751
-0.254533
-0.251774
-0.245654
-0.236743
-0.225536
-0.212691
-0.198771
-0.184335
-0.170039
-0.156287
-0.143562
-0.132157
-0.12226
-0.114043
-0.107429
-0.102281
-0.098385
-0.0954141
-0.0932479
-0.0918457
-0.0912646
-0.092034
-0.0947868
-0.0998608
-0.107632
-0.11839
-0.131814
-0.147196
-0.163526
-0.179643
-0.194406
-0.206673
-0.214504
-0.21851
-0.218214
-0.213514
-0.204942
-0.193334
-0.17955
-0.164324
-0.148491
-0.132805
-0.118007
-0.10453
-0.0927698
-0.0829244
-0.075231
-0.0695963
-0.0658786
-0.0636095
-0.0623617
-0.0615345
-0.06067
-0.0591735
-0.0567963
-0.0533924
-0.0488028
-0.0428029
-0.035869
-0.0282489
-0.0202349
-0.0120277
-0.00401846
-0.19622
-0.203878
-0.208504
-0.211935
-0.214689
-0.216902
-0.218557
-0.219822
-0.220774
-0.221396
-0.221551
-0.220919
-0.21929
-0.216419
-0.212462
-0.207861
-0.203381
-0.199917
-0.19828
-0.199113
-0.202561
-0.208258
-0.215265
-0.222413
-0.228533
-0.232807
-0.234633
-0.233756
-0.230219
-0.224212
-0.216267
-0.206738
-0.196198
-0.185001
-0.173583
-0.162428
-0.151789
-0.142192
-0.133689
-0.126436
-0.120479
-0.115689
-0.111989
-0.109121
-0.106655
-0.104349
-0.102343
-0.100611
-0.0998553
-0.101465
-0.105991
-0.113763
-0.125473
-0.141
-0.159259
-0.178826
-0.198169
-0.215894
-0.2304
-0.240302
-0.24484
-0.24435
-0.238706
-0.22847
-0.214584
-0.198025
-0.179665
-0.160439
-0.141206
-0.122773
-0.105675
-0.0904003
-0.0772278
-0.0663953
-0.0578494
-0.0514835
-0.0469319
-0.0438618
-0.0417548
-0.0402158
-0.0386714
-0.0368605
-0.0345645
-0.0315226
-0.0276857
-0.0231336
-0.0181143
-0.0128926
-0.00759639
-0.0025337
-0.189925
-0.198697
-0.204076
-0.207246
-0.209412
-0.211207
-0.212749
-0.213958
-0.214801
-0.215217
-0.215139
-0.214413
-0.212927
-0.210629
-0.20763
-0.20425
-0.200988
-0.198405
-0.197039
-0.197252
-0.199151
-0.202433
-0.206461
-0.210471
-0.213672
-0.215535
-0.215644
-0.213861
-0.210211
-0.204847
-0.198142
-0.190343
-0.181978
-0.173252
-0.164451
-0.155868
-0.147671
-0.140467
-0.134224
-0.12926
-0.125448
-0.122551
-0.120582
-0.118903
-0.117154
-0.114507
-0.11121
-0.108046
-0.105181
-0.104582
-0.10802
-0.11563
-0.1279
-0.145233
-0.166464
-0.189499
-0.212234
-0.232743
-0.249319
-0.260834
-0.266667
-0.26608
-0.259379
-0.247544
-0.231654
-0.212721
-0.191691
-0.169536
-0.147167
-0.125439
-0.105023
-0.0865122
-0.0703017
-0.0566594
-0.0455863
-0.036996
-0.0305924
-0.0260841
-0.0230076
-0.0210008
-0.0195352
-0.01833
-0.0170812
-0.01568
-0.0137773
-0.0114731
-0.00886399
-0.00621905
-0.00358772
-0.00119247
-0.179105
-0.187097
-0.193335
-0.197798
-0.200917
-0.203199
-0.204974
-0.206354
-0.207361
-0.207941
-0.208039
-0.207585
-0.206528
-0.204892
-0.202768
-0.200375
-0.198008
-0.196003
-0.194687
-0.194256
-0.194781
-0.196062
-0.197738
-0.199305
-0.200285
-0.200349
-0.199247
-0.196915
-0.193323
-0.188609
-0.182943
-0.176544
-0.169752
-0.162723
-0.155744
-0.149025
-0.142749
-0.137422
-0.133104
-0.130293
-0.128751
-0.128028
-0.128053
-0.127529
-0.12646
-0.123591
-0.117864
-0.112441
-0.108115
-0.104725
-0.105921
-0.114155
-0.12869
-0.148425
-0.172263
-0.198268
-0.224077
-0.24741
-0.266198
-0.278941
-0.284793
-0.283587
-0.275682
-0.262152
-0.244208
-0.222981
-0.199541
-0.174872
-0.149896
-0.12545
-0.102292
-0.0810844
-0.0623355
-0.0463644
-0.0332528
-0.0229361
-0.0151708
-0.00966786
-0.00600062
-0.00380526
-0.00259594
-0.00206865
-0.00186003
-0.00186478
-0.00172025
-0.00143472
-0.000953034
-0.000536209
-0.000177409
-5.29104e-05
-0.172887
-0.179966
-0.185934
-0.190651
-0.194199
-0.196808
-0.198751
-0.200198
-0.201243
-0.201888
-0.202111
-0.201876
-0.201162
-0.200002
-0.198458
-0.196675
-0.194818
-0.193082
-0.191627
-0.190553
-0.189916
-0.1896
-0.189432
-0.189119
-0.188401
-0.187046
-0.184904
-0.181982
-0.178268
-0.173951
-0.169067
-0.163795
-0.158203
-0.152415
-0.14682
-0.14164
-0.137214
-0.133594
-0.130961
-0.129964
-0.130512
-0.131984
-0.133758
-0.134109
-0.132998
-0.130277
-0.122859
-0.113357
-0.107412
-0.105682
-0.107684
-0.115525
-0.1304
-0.15156
-0.177479
-0.205757
-0.233668
-0.258764
-0.278885
-0.292237
-0.297968
-0.295743
-0.286617
-0.27154
-0.251763
-0.228552
-0.203088
-0.176369
-0.149331
-0.122791
-0.0975508
-0.074304
-0.0536403
-0.0359287
-0.0213352
-0.00981488
-0.00116764
0.00490796
0.00881376
0.0109377
0.0117371
0.0115441
0.0107558
0.00953089
0.00818186
0.00675901
0.00544229
0.00401963
0.00253784
0.000839987
-0.167443
-0.173869
-0.179486
-0.184162
-0.187868
-0.19069
-0.192797
-0.194347
-0.195457
-0.196181
-0.19653
-0.1965
-0.196082
-0.195293
-0.194165
-0.192771
-0.191196
-0.189538
-0.187884
-0.186281
-0.184753
-0.18323
-0.181625
-0.17979
-0.177608
-0.174979
-0.17185
-0.168301
-0.164409
-0.160396
-0.156271
-0.152129
-0.147808
-0.143235
-0.138841
-0.135065
-0.132485
-0.130488
-0.129004
-0.128947
-0.130629
-0.133554
-0.136512
-0.137732
-0.135802
-0.131341
-0.125332
-0.118157
-0.111677
-0.108681
-0.110682
-0.118772
-0.133693
-0.155115
-0.181362
-0.209923
-0.238064
-0.263251
-0.283272
-0.296487
-0.301776
-0.299376
-0.289699
-0.27382
-0.253039
-0.228658
-0.201919
-0.173862
-0.145481
-0.117591
-0.0910234
-0.0664875
-0.044622
-0.0258322
-0.010351
0.00184722
0.0109262
0.0172016
0.0210593
0.0229147
0.0232121
0.02231
0.0206162
0.0183478
0.0157859
0.0130242
0.0102685
0.00741267
0.00453255
0.00148938
-0.162917
-0.168872
-0.174161
-0.178677
-0.182372
-0.18527
-0.187469
-0.189097
-0.190267
-0.191061
-0.191517
-0.191654
-0.191473
-0.190981
-0.19019
-0.189109
-0.187764
-0.186169
-0.184351
-0.182308
-0.180029
-0.177482
-0.174632
-0.171462
-0.167965
-0.164182
-0.160179
-0.156096
-0.152134
-0.148518
-0.145322
-0.142512
-0.139727
-0.136593
-0.133263
-0.130307
-0.128819
-0.12834
-0.127895
-0.127956
-0.129142
-0.131815
-0.135012
-0.137172
-0.136498
-0.132236
-0.126343
-0.120576
-0.116232
-0.11541
-0.117925
-0.125347
-0.138624
-0.15801
-0.182234
-0.209161
-0.236107
-0.26044
-0.279871
-0.29275
-0.297813
-0.295191
-0.285425
-0.269433
-0.248437
-0.223705
-0.196497
-0.167864
-0.138887
-0.110385
-0.0832235
-0.0581333
-0.0357679
-0.0165543
-0.000763471
0.0116158
0.0207245
0.0268877
0.0304814
0.0319454
0.0317164
0.0301806
0.0277342
0.0246299
0.0211543
0.0174192
0.0136338
0.00974955
0.00588064
0.00192911
-0.159127
-0.164736
-0.169733
-0.174037
-0.177609
-0.180464
-0.182665
-0.184313
-0.185507
-0.186342
-0.186874
-0.187143
-0.187164
-0.186935
-0.186447
-0.18567
-0.184574
-0.183108
-0.181221
-0.178857
-0.175967
-0.172546
-0.168611
-0.164255
-0.159613
-0.154896
-0.150352
-0.146173
-0.142587
-0.139683
-0.137434
-0.135715
-0.134155
-0.13275
-0.131085
-0.128553
-0.125887
-0.125151
-0.127121
-0.129347
-0.130943
-0.13215
-0.133002
-0.133
-0.132086
-0.130327
-0.127686
-0.12532
-0.124145
-0.123874
-0.126457
-0.132806
-0.143731
-0.159872
-0.180631
-0.204409
-0.228875
-0.251448
-0.269782
-0.282132
-0.287365
-0.285062
-0.275939
-0.260499
-0.239927
-0.215498
-0.188473
-0.15977
-0.130769
-0.102224
-0.0750567
-0.0500064
-0.0277156
-0.00861958
0.00700238
0.0191546
0.0279791
0.0338099
0.037022
0.0380662
0.0373646
0.0353253
0.0323209
0.028632
0.0245479
0.0201689
0.0157483
0.011209
0.00672643
0.00219962
-0.155937
-0.161304
-0.166044
-0.17011
-0.17349
-0.176215
-0.178343
-0.179957
-0.181144
-0.181993
-0.18258
-0.182959
-0.183165
-0.183201
-0.18305
-0.182654
-0.18193
-0.180755
-0.178997
-0.176525
-0.173269
-0.169222
-0.164459
-0.159149
-0.153569
-0.148146
-0.14337
-0.139739
-0.137402
-0.135955
-0.134642
-0.132831
-0.130612
-0.129751
-0.130819
-0.131717
-0.130885
-0.12893
-0.127944
-0.128325
-0.129039
-0.129842
-0.131141
-0.131227
-0.130687
-0.129763
-0.128956
-0.128761
-0.129497
-0.131402
-0.134386
-0.139633
-0.148077
-0.160401
-0.176809
-0.196552
-0.217852
-0.238298
-0.255493
-0.267528
-0.273119
-0.271659
-0.263387
-0.248897
-0.229227
-0.205558
-0.179106
-0.150981
-0.122354
-0.0942036
-0.0674469
-0.0428587
-0.021059
-0.00245969
0.0126766
0.0243541
0.0327309
0.0381424
0.0409647
0.0416478
0.0406006
0.0382339
0.0348891
0.0308801
0.0264616
0.0217519
0.0169539
0.0120384
0.00720681
0.00231289
-0.153766
-0.158932
-0.163442
-0.167271
-0.170434
-0.172987
-0.174997
-0.176546
-0.177711
-0.178576
-0.179224
-0.179729
-0.180139
-0.180473
-0.180705
-0.180757
-0.180494
-0.179724
-0.178245
-0.175886
-0.172565
-0.168263
-0.163048
-0.157069
-0.150633
-0.144346
-0.139163
-0.135969
-0.135224
-0.136148
-0.137025
-0.136635
-0.134798
-0.132552
-0.130931
-0.129752
-0.128706
-0.128204
-0.128425
-0.129003
-0.129565
-0.129914
-0.130062
-0.12988
-0.129493
-0.129179
-0.129321
-0.13021
-0.131961
-0.134614
-0.138469
-0.143716
-0.150959
-0.160659
-0.173233
-0.188832
-0.206585
-0.224587
-0.240567
-0.252403
-0.258539
-0.25806
-0.250724
-0.23759
-0.219134
-0.196478
-0.170844
-0.143449
-0.115454
-0.0879027
-0.0617287
-0.0377224
-0.0165296
0.00145151
0.0160176
0.0271834
0.0351275
0.0401804
0.0427173
0.0431735
0.0419478
0.0394381
0.0359618
0.0318472
0.0272741
0.0224288
0.0174621
0.0124004
0.00742204
0.00236469
-0.152485
-0.157571
-0.161967
-0.165691
-0.168779
-0.171289
-0.173287
-0.174855
-0.176085
-0.177064
-0.177873
-0.178578
-0.179225
-0.17983
-0.180361
-0.180734
-0.180789
-0.180321
-0.179121
-0.177038
-0.17399
-0.169981
-0.165094
-0.159513
-0.15357
-0.1478
-0.14268
-0.138967
-0.136865
-0.136092
-0.135619
-0.134487
-0.132851
-0.131637
-0.130996
-0.130506
-0.129737
-0.128935
-0.128689
-0.128816
-0.129043
-0.129222
-0.129251
-0.128972
-0.128536
-0.128254
-0.128511
-0.129642
-0.131891
-0.135432
-0.140426
-0.146977
-0.154739
-0.163551
-0.173872
-0.186592
-0.201695
-0.217872
-0.232778
-0.244157
-0.250323
-0.250238
-0.243584
-0.230786
-0.212837
-0.190736
-0.16564
-0.138753
-0.111242
-0.0841717
-0.0584743
-0.0349323
-0.0141658
0.00341135
0.0176102
0.0284198
0.0360684
0.0408806
0.043232
0.0435446
0.0422089
0.0396047
0.0360456
0.0317936
0.0271357
0.0222262
0.0171972
0.0121445
0.0071721
0.0022439
)
;

boundaryField
{
    fixedWalls
    {
        type            zeroGradient;
    }
    inflowWall
    {
        type            zeroGradient;
    }
    outflowWall
    {
        type            fixedValue;
        value           uniform 0;
    }
    frontAndBack
    {
        type            empty;
    }
}


// ************************************************************************* //
