/*--------------------------------*- C++ -*----------------------------------*\
| =========                 |                                                 |
| \\      /  F ield         | OpenFOAM: The Open Source CFD Toolbox           |
|  \\    /   O peration     | Version:  2306                                  |
|   \\  /    A nd           | Website:  www.openfoam.com                      |
|    \\/     M anipulation  |                                                 |
\*---------------------------------------------------------------------------*/
FoamFile
{
    version     2.0;
    format      ascii;
    arch        "LSB;label=32;scalar=64";
    class       surfaceScalarField;
    location    "1";
    object      phi;
}
// * * * * * * * * * * * * * * * * * * * * * * * * * * * * * * * * * * * * * //

dimensions      [0 3 -1 0 0 0 0];

oriented        oriented;

internalField   nonuniform List<scalar> 
3680
(
4.93487e-05
6.51336e-07
4.79764e-05
1.37228e-06
4.67071e-05
1.26933e-06
4.52751e-05
1.432e-06
4.41508e-05
1.12423e-06
4.27582e-05
1.39268e-06
4.17988e-05
9.594e-07
4.05202e-05
1.27858e-06
3.99284e-05
5.91732e-07
9.45521e-07
3.89829e-05
5.03393e-05
3.12018e-07
5.08705e-05
8.41106e-07
5.11378e-05
1.00199e-06
5.1477e-05
1.09287e-06
5.16117e-05
9.89496e-07
5.20083e-05
9.96102e-07
5.21063e-05
8.61332e-07
5.25823e-05
8.02604e-07
5.2599e-05
5.75037e-07
3.50458e-07
5.31941e-05
5.01635e-05
1.48487e-07
5.05577e-05
4.46968e-07
5.09802e-05
5.79475e-07
5.1428e-05
6.45047e-07
5.18288e-05
5.88652e-07
5.22871e-05
5.37814e-07
5.27224e-05
4.2606e-07
5.32069e-05
3.18076e-07
5.3648e-05
1.34009e-07
-8.90619e-08
5.40875e-05
5.00935e-05
5.50285e-08
5.0378e-05
1.62414e-07
5.07369e-05
2.20633e-07
5.11527e-05
2.29233e-07
5.15587e-05
1.82583e-07
5.19865e-05
1.10056e-07
5.23995e-05
1.30095e-08
5.28384e-05
-1.2079e-07
5.32553e-05
-2.82837e-07
-4.81445e-07
5.36476e-05
5.0074e-05
-1.89394e-08
5.02921e-05
-5.57346e-08
5.06118e-05
-9.90743e-08
5.09905e-05
-1.49457e-07
5.13825e-05
-2.09358e-07
5.17784e-05
-2.85856e-07
5.21741e-05
-3.82769e-07
5.25603e-05
-5.06922e-07
5.29339e-05
-6.5649e-07
-8.33649e-07
5.32861e-05
5.0073e-05
-9.19114e-08
5.02826e-05
-2.6532e-07
5.05965e-05
-4.13029e-07
5.09631e-05
-5.16032e-07
5.13414e-05
-5.87672e-07
5.17174e-05
-6.61846e-07
5.20859e-05
-7.5125e-07
5.24439e-05
-8.64945e-07
5.27902e-05
-1.00278e-06
-1.16127e-06
5.31178e-05
5.00938e-05
-1.85703e-07
5.03542e-05
-5.25766e-07
5.06953e-05
-7.54043e-07
5.10626e-05
-8.83411e-07
5.14318e-05
-9.56809e-07
5.1791e-05
-1.02105e-06
5.21421e-05
-1.10241e-06
5.24856e-05
-1.20837e-06
5.28163e-05
-1.33353e-06
-1.46938e-06
5.31244e-05
5.0166e-05
-3.51693e-07
5.0516e-05
-8.75754e-07
5.09161e-05
-1.15418e-06
5.12909e-05
-1.25817e-06
5.16342e-05
-1.30018e-06
5.1964e-05
-1.35082e-06
5.22877e-05
-1.42608e-06
5.25956e-05
-1.51629e-06
5.28729e-05
-1.61085e-06
-1.7041e-06
5.31077e-05
5.0367e-05
-7.18724e-07
5.07977e-05
-1.30645e-06
5.10928e-05
-1.44923e-06
5.12645e-05
-1.42988e-06
5.13849e-05
-1.42058e-06
5.14722e-05
-1.43808e-06
5.15079e-05
-1.4618e-06
5.1474e-05
-1.48245e-06
5.13602e-05
-1.497e-06
-1.50939e-06
5.11655e-05
4.92813e-05
4.79748e-05
4.65256e-05
4.50957e-05
4.36751e-05
4.2237e-05
4.07752e-05
3.92928e-05
3.77958e-05
3.62864e-05
3.8065e-07
-3.8065e-07
1.33783e-06
-9.57179e-07
2.39108e-06
-1.05325e-06
3.20874e-06
-8.17663e-07
3.65592e-06
-4.47181e-07
3.71463e-06
-5.8705e-08
3.43536e-06
2.79267e-07
2.93595e-06
4.99415e-07
2.35234e-06
5.83606e-07
1.81869e-06
5.33651e-07
1.43333e-06
3.85363e-07
1.24987e-06
1.83459e-07
1.27654e-06
-2.66748e-08
1.49256e-06
-2.16018e-07
1.86077e-06
-3.68207e-07
2.31672e-06
-4.5595e-07
2.78414e-06
-4.67424e-07
3.2777e-06
-4.93561e-07
3.80822e-06
-5.30521e-07
4.15411e-06
-3.45883e-07
3.70818e-06
4.45922e-07
1.92476e-06
1.78342e-06
-1.34446e-06
3.26922e-06
-5.31487e-06
3.97041e-06
-9.14134e-06
3.82647e-06
-1.24103e-05
3.26901e-06
-1.50059e-05
2.59555e-06
-1.69247e-05
1.9188e-06
-1.82151e-05
1.29042e-06
-1.89473e-05
7.32226e-07
-1.91917e-05
2.44397e-07
-1.90276e-05
-1.64124e-07
-1.85161e-05
-5.11538e-07
-1.76854e-05
-8.30665e-07
-1.65629e-05
-1.12248e-06
-1.51709e-05
-1.39208e-06
-1.35349e-05
-1.63593e-06
-1.16843e-05
-1.85068e-06
-9.65148e-06
-2.03278e-06
-7.47515e-06
-2.17633e-06
-5.19676e-06
-2.27839e-06
-2.86504e-06
-2.33172e-06
-5.21764e-07
-2.34327e-06
1.78395e-06
-2.30572e-06
4.00255e-06
-2.2186e-06
6.09402e-06
-2.09147e-06
8.02613e-06
-1.93212e-06
9.77368e-06
-1.74755e-06
1.13179e-05
-1.54421e-06
1.26459e-05
-1.32805e-06
1.37475e-05
-1.10151e-06
1.46129e-05
-8.65403e-07
1.52286e-05
-6.15764e-07
1.55773e-05
-3.48645e-07
1.56404e-05
-6.31223e-08
1.54191e-05
2.21309e-07
1.48833e-05
5.35804e-07
1.40188e-05
8.64465e-07
1.28179e-05
1.20093e-06
1.13161e-05
1.5018e-06
9.64443e-06
1.67165e-06
8.00258e-06
1.64184e-06
6.59114e-06
1.41145e-06
5.53477e-06
1.05637e-06
4.82715e-06
7.0762e-07
4.35487e-06
4.72284e-07
3.99963e-06
3.55237e-07
3.70821e-06
2.91421e-07
3.41821e-06
2.9e-07
3.08979e-06
3.28417e-07
2.66578e-06
4.24011e-07
2.12483e-06
5.40955e-07
1.46618e-06
6.58645e-07
7.04443e-07
7.61738e-07
-1.25205e-07
8.29648e-07
-9.81872e-07
8.56667e-07
-1.82263e-06
8.40754e-07
-2.6061e-06
7.83471e-07
-3.28493e-06
6.78836e-07
-3.82989e-06
5.44959e-07
-4.20696e-06
3.77064e-07
-4.40916e-06
2.02198e-07
-4.40238e-06
-6.78023e-09
-4.22937e-06
-1.73002e-07
-3.83719e-06
-3.92179e-07
-3.29601e-06
-5.41183e-07
-2.5577e-06
-7.38309e-07
-1.7213e-06
-8.36401e-07
-7.09003e-07
-1.0123e-06
-8.94425e-07
7.65422e-07
-1.14607e-06
2.05605e-06
-2.24781e-06
3.34203e-06
-2.33923e-06
4.38449e-06
-1.86012e-06
5.09375e-06
-1.15645e-06
5.45017e-06
-4.15118e-07
5.47927e-06
2.50163e-07
5.22727e-06
7.51417e-07
4.80124e-06
1.00963e-06
4.31435e-06
1.02055e-06
3.88648e-06
8.13229e-07
3.58988e-06
4.80062e-07
3.47121e-06
9.19983e-08
3.56035e-06
-3.05158e-07
3.80066e-06
-6.08517e-07
4.08323e-06
-7.38526e-07
4.184e-06
-5.68191e-07
3.67712e-06
1.33196e-08
2.08687e-06
1.05973e-06
-9.18057e-07
2.65904e-06
-4.98688e-06
4.51474e-06
-9.29248e-06
6.08902e-06
-1.29622e-05
6.93893e-06
-1.58615e-05
6.86972e-06
-1.8148e-05
6.11297e-06
-1.9845e-05
4.96599e-06
-2.09476e-05
3.69818e-06
-2.14893e-05
2.46049e-06
-2.15207e-05
1.32178e-06
-2.10893e-05
3.0082e-07
-2.03124e-05
-5.32422e-07
-1.92213e-05
-1.25523e-06
-1.7826e-05
-1.90685e-06
-1.61612e-05
-2.49546e-06
-1.4248e-05
-3.03568e-06
-1.21037e-05
-3.5364e-06
-9.74983e-06
-3.98979e-06
-7.20574e-06
-4.39477e-06
-4.50996e-06
-4.72855e-06
-1.69436e-06
-4.99194e-06
1.19028e-06
-5.16302e-06
4.11302e-06
-5.25446e-06
7.02121e-06
-5.25146e-06
9.86842e-06
-5.15292e-06
1.26154e-05
-4.96558e-06
1.52267e-05
-4.70272e-06
1.76739e-05
-4.37937e-06
1.99354e-05
-4.00906e-06
2.19966e-05
-3.60541e-06
2.38478e-05
-3.17921e-06
2.54791e-05
-2.73286e-06
2.6883e-05
-2.26932e-06
2.80539e-05
-1.78661e-06
2.89811e-05
-1.27581e-06
2.96585e-05
-7.40543e-07
3.00533e-05
-1.73565e-07
3.01622e-05
4.26899e-07
2.99676e-05
1.05909e-06
2.94675e-05
1.7011e-06
2.86526e-05
2.31665e-06
2.74755e-05
2.84878e-06
2.58736e-05
3.24368e-06
2.3796e-05
3.48909e-06
2.12367e-05
3.61566e-06
1.83796e-05
3.56476e-06
1.54978e-05
3.35401e-06
1.28817e-05
2.97135e-06
1.07639e-05
2.40924e-06
9.18559e-06
1.8683e-06
7.97625e-06
1.53776e-06
6.89748e-06
1.50277e-06
5.81411e-06
1.62432e-06
4.68654e-06
1.78622e-06
3.53958e-06
1.90869e-06
2.42453e-06
1.9447e-06
1.39094e-06
1.89026e-06
4.83158e-07
1.74853e-06
-2.64355e-07
1.53098e-06
-8.30558e-07
1.24504e-06
-1.20309e-06
9.1749e-07
-1.35334e-06
5.2732e-07
-1.28891e-06
1.37759e-07
-9.93857e-07
-3.01829e-07
-4.94655e-07
-6.72203e-07
2.57017e-07
-1.14385e-06
1.15127e-06
-1.43544e-06
2.32415e-06
-1.91119e-06
3.55218e-06
-2.06443e-06
4.99384e-06
-2.45396e-06
-2.49711e-06
7.8688e-07
-1.93295e-06
1.70275e-06
-3.16367e-06
2.45863e-06
-3.09511e-06
3.0397e-06
-2.44119e-06
3.45129e-06
-1.56804e-06
3.6829e-06
-6.46719e-07
3.74813e-06
1.84929e-07
3.66322e-06
8.36328e-07
3.46561e-06
1.20724e-06
3.21375e-06
1.27241e-06
2.97392e-06
1.05306e-06
2.81011e-06
6.43869e-07
2.73778e-06
1.64331e-07
2.66317e-06
-2.30547e-07
2.40098e-06
-3.46332e-07
1.70008e-06
-3.76215e-08
3.19466e-07
8.12424e-07
-1.89266e-06
2.22545e-06
-4.80058e-06
3.96765e-06
-7.87942e-06
5.73788e-06
-1.0675e-05
7.31032e-06
-1.2906e-05
8.32e-06
-1.44514e-05
8.4844e-06
-1.53692e-05
7.78744e-06
-1.57717e-05
6.51555e-06
-1.57747e-05
4.96899e-06
-1.54342e-05
3.35768e-06
-1.47938e-05
1.82001e-06
-1.38852e-05
4.13241e-07
-1.27859e-05
-7.98447e-07
-1.14639e-05
-1.85446e-06
-9.93895e-06
-2.78019e-06
-8.22836e-06
-3.61745e-06
-6.33889e-06
-4.38493e-06
-4.2684e-06
-5.10617e-06
-2.0181e-06
-5.78671e-06
3.98283e-07
-6.40617e-06
2.94662e-06
-6.9431e-06
5.61745e-06
-7.39939e-06
8.37304e-06
-7.74752e-06
1.118e-05
-7.97e-06
1.39866e-05
-8.06109e-06
1.67496e-05
-8.01439e-06
1.94282e-05
-7.8315e-06
2.19877e-05
-7.52511e-06
2.44014e-05
-7.11643e-06
2.66501e-05
-6.62803e-06
2.87217e-05
-6.08066e-06
3.06111e-05
-5.4948e-06
3.23152e-05
-4.88338e-06
3.38348e-05
-4.25241e-06
3.51693e-05
-3.6038e-06
3.63174e-05
-2.93479e-06
3.72783e-05
-2.23668e-06
3.80426e-05
-1.50486e-06
3.86026e-05
-7.33598e-07
3.89502e-05
7.93654e-08
3.90725e-05
9.36791e-07
3.89573e-05
1.81625e-06
3.85784e-05
2.69555e-06
3.78911e-05
3.53611e-06
3.68454e-05
4.28934e-06
3.54156e-05
4.91891e-06
3.36182e-05
5.41308e-06
3.14239e-05
5.75908e-06
2.88156e-05
5.96233e-06
2.57868e-05
6.00016e-06
2.23952e-05
5.80085e-06
1.89408e-05
5.3227e-06
1.58253e-05
4.65318e-06
1.33631e-05
3.96498e-06
1.15026e-05
3.4849e-06
1.00067e-05
3.28212e-06
8.69513e-06
3.22023e-06
7.50237e-06
3.13746e-06
6.42873e-06
2.9639e-06
5.50597e-06
2.67129e-06
4.75049e-06
2.28646e-06
4.19169e-06
1.80384e-06
3.82012e-06
1.28906e-06
3.6802e-06
6.67234e-07
3.73015e-06
8.78153e-08
4.03553e-06
-6.07214e-07
4.48698e-06
-1.12365e-06
5.24861e-06
-1.90548e-06
6.11139e-06
-2.29822e-06
7.26057e-06
-3.06036e-06
8.51071e-06
-3.31457e-06
9.90091e-06
-3.84417e-06
-4.15469e-06
2.88617e-07
-2.22157e-06
3.14311e-07
-3.18937e-06
1.94344e-07
-2.97514e-06
7.15335e-08
-2.31838e-06
-1.30674e-08
-1.48344e-06
-7.15304e-08
-5.88256e-07
-1.30258e-07
2.43657e-07
-1.88807e-07
8.94878e-07
-2.66162e-07
1.2846e-06
-3.68946e-07
1.37519e-06
-5.13978e-07
1.19809e-06
-7.417e-07
8.71591e-07
-1.1141e-06
5.36727e-07
-1.7225e-06
3.77855e-07
-2.64786e-06
5.7903e-07
-3.88165e-06
1.19617e-06
-5.3377e-06
2.26848e-06
-6.84866e-06
3.73641e-06
-8.28634e-06
5.40533e-06
-9.51635e-06
6.96788e-06
-1.03158e-05
8.10974e-06
-1.05857e-05
8.58991e-06
-1.03458e-05
8.24452e-06
-9.74392e-06
7.18556e-06
-8.90184e-06
5.67347e-06
-7.91064e-06
3.97779e-06
-6.80238e-06
2.24941e-06
-5.5931e-06
6.10731e-07
-4.30812e-06
-8.71742e-07
-2.92186e-06
-2.18471e-06
-1.42321e-06
-3.35311e-06
2.0702e-07
-4.41042e-06
1.96995e-06
-5.38038e-06
3.88971e-06
-6.30469e-06
5.97245e-06
-7.18891e-06
8.21029e-06
-8.02454e-06
1.05927e-05
-8.78858e-06
1.31065e-05
-9.45689e-06
1.57117e-05
-1.00046e-05
1.83677e-05
-1.04035e-05
2.10303e-05
-1.06326e-05
2.36484e-05
-1.06792e-05
2.61787e-05
-1.05446e-05
2.85872e-05
-1.024e-05
3.08479e-05
-9.78582e-06
3.29436e-05
-9.21213e-06
3.48683e-05
-8.55273e-06
3.66205e-05
-7.83293e-06
3.82055e-05
-7.07974e-06
3.96307e-05
-6.30858e-06
4.09036e-05
-5.52535e-06
4.20316e-05
-4.73174e-06
4.30158e-05
-3.91901e-06
4.38581e-05
-3.07894e-06
4.45531e-05
-2.19992e-06
4.50964e-05
-1.27685e-06
4.54846e-05
-3.08821e-07
4.56841e-05
7.37282e-07
4.56837e-05
1.81664e-06
4.54699e-05
2.90937e-06
4.50172e-05
3.98876e-06
4.42954e-05
5.01116e-06
4.32867e-05
5.9276e-06
4.197e-05
6.72976e-06
4.03124e-05
7.41669e-06
3.82958e-05
7.97896e-06
3.59364e-05
8.35949e-06
3.32454e-05
8.4919e-06
3.01814e-05
8.38668e-06
2.67747e-05
8.05994e-06
2.32559e-05
7.48374e-06
2.00087e-05
6.73207e-06
1.73326e-05
5.95827e-06
1.52686e-05
5.28415e-06
1.36808e-05
4.72528e-06
1.24088e-05
4.23591e-06
1.13718e-05
3.70833e-06
1.05159e-05
3.14239e-06
9.86901e-06
2.45069e-06
9.38852e-06
1.76956e-06
9.15783e-06
8.97927e-07
9.08616e-06
1.59481e-07
9.29574e-06
-8.16794e-07
9.64817e-06
-1.47608e-06
1.02779e-05
-2.53521e-06
1.10569e-05
-3.07724e-06
1.20182e-05
-4.02167e-06
1.31552e-05
-4.45155e-06
1.43453e-05
-5.03424e-06
-5.52286e-06
-6.20131e-07
-1.60144e-06
-1.6506e-06
-2.1589e-06
-2.65786e-06
-1.96788e-06
-3.46284e-06
-1.5134e-06
-4.0599e-06
-8.86381e-07
-4.48306e-06
-1.65103e-07
-4.75517e-06
5.15767e-07
-4.93638e-06
1.07609e-06
-5.08359e-06
1.43181e-06
-5.25556e-06
1.54716e-06
-5.5046e-06
1.44714e-06
-5.8319e-06
1.19889e-06
-6.22935e-06
9.34181e-07
-6.67341e-06
8.21912e-07
-7.08924e-06
9.94858e-07
-7.44244e-06
1.54936e-06
-7.70254e-06
2.52858e-06
-7.8017e-06
3.83557e-06
-7.6284e-06
5.23204e-06
-7.10986e-06
6.44934e-06
-6.23151e-06
7.23139e-06
-5.03846e-06
7.39686e-06
-3.60512e-06
6.81118e-06
-2.07296e-06
5.6534e-06
-5.32421e-07
4.13293e-06
9.94015e-07
2.45136e-06
2.46566e-06
7.77773e-07
3.91129e-06
-8.34904e-07
5.36241e-06
-2.32287e-06
6.85012e-06
-3.67242e-06
8.41288e-06
-4.91587e-06
1.00887e-05
-6.08627e-06
1.19088e-05
-7.20042e-06
1.38816e-05
-8.2775e-06
1.60102e-05
-9.31755e-06
1.82788e-05
-1.02931e-05
2.06636e-05
-1.11734e-05
2.31278e-05
-1.1921e-05
2.56199e-05
-1.24968e-05
2.80889e-05
-1.28725e-05
3.04863e-05
-1.30299e-05
3.27674e-05
-1.29604e-05
3.48985e-05
-1.26757e-05
3.68583e-05
-1.21998e-05
3.8638e-05
-1.15656e-05
4.0239e-05
-1.08131e-05
4.16709e-05
-9.9846e-06
4.29494e-05
-9.11141e-06
4.40921e-05
-8.22247e-06
4.51187e-05
-7.33515e-06
4.60442e-05
-6.45084e-06
4.68835e-05
-5.57106e-06
4.76395e-05
-4.67507e-06
4.83156e-05
-3.75502e-06
4.89077e-05
-2.79198e-06
4.9402e-05
-1.77112e-06
4.97913e-05
-6.98207e-07
5.00565e-05
4.72081e-07
5.01578e-05
1.71534e-06
5.0097e-05
2.97021e-06
4.98513e-05
4.23443e-06
4.93895e-05
5.47295e-06
4.86826e-05
6.63449e-06
4.77133e-05
7.69911e-06
4.64755e-05
8.65443e-06
4.49784e-05
9.47615e-06
4.32203e-05
1.01176e-05
4.11649e-05
1.05473e-05
3.87943e-05
1.07572e-05
3.61306e-05
1.07236e-05
3.3195e-05
1.04194e-05
3.00622e-05
9.86482e-06
2.69337e-05
9.08676e-06
2.40553e-05
8.16262e-06
2.16212e-05
7.15933e-06
1.96716e-05
6.18549e-06
1.81832e-05
5.19671e-06
1.70383e-05
4.28733e-06
1.62237e-05
3.26531e-06
1.56261e-05
2.36711e-06
1.53092e-05
1.21484e-06
1.51717e-05
2.96969e-07
1.52894e-05
-9.34479e-07
1.55858e-05
-1.77249e-06
1.60783e-05
-3.0277e-06
1.67545e-05
-3.7535e-06
1.75285e-05
-4.79563e-06
1.84516e-05
-5.37469e-06
1.94004e-05
-5.98298e-06
-6.49308e-06
-1.54989e-06
-5.15516e-08
-3.45046e-06
-2.5832e-07
-5.10245e-06
-3.15897e-07
-6.42947e-06
-1.86383e-07
-7.42705e-06
1.11199e-07
-8.09993e-06
5.07781e-07
-8.53276e-06
9.48597e-07
-8.78589e-06
1.32923e-06
-8.92729e-06
1.5732e-06
-9.00708e-06
1.62695e-06
-9.04434e-06
1.48439e-06
-9.03359e-06
1.18814e-06
-8.94516e-06
8.45754e-07
-8.72578e-06
6.02524e-07
-8.32285e-06
5.91936e-07
-7.68391e-06
9.10414e-07
-6.78024e-06
1.62491e-06
-5.57265e-06
2.62798e-06
-4.05094e-06
3.71032e-06
-2.2435e-06
4.6419e-06
-2.29493e-07
5.21739e-06
1.96249e-06
5.20487e-06
4.15395e-06
4.61972e-06
6.24311e-06
3.56424e-06
8.17037e-06
2.20567e-06
9.91907e-06
7.0266e-07
1.15696e-05
-8.72754e-07
1.31395e-05
-2.40483e-06
1.46734e-05
-3.8567e-06
1.62416e-05
-5.2407e-06
1.78915e-05
-6.56569e-06
1.96669e-05
-7.86173e-06
2.15911e-05
-9.12461e-06
2.36576e-05
-1.0344e-05
2.5848e-05
-1.1508e-05
2.81248e-05
-1.25699e-05
3.04377e-05
-1.34863e-05
3.27297e-05
-1.4213e-05
3.4941e-05
-1.4708e-05
3.70197e-05
-1.49513e-05
3.89261e-05
-1.49363e-05
4.06335e-05
-1.46677e-05
4.21306e-05
-1.41727e-05
4.34204e-05
-1.34897e-05
4.45177e-05
-1.26629e-05
4.54474e-05
-1.17429e-05
4.62364e-05
-1.07736e-05
4.69182e-05
-9.79314e-06
4.75224e-05
-8.82672e-06
4.8077e-05
-7.88972e-06
4.86062e-05
-6.98003e-06
4.91235e-05
-6.08841e-06
4.96389e-05
-5.19046e-06
5.01499e-05
-4.26601e-06
5.06491e-05
-3.29113e-06
5.11127e-05
-2.2348e-06
5.15155e-05
-1.101e-06
5.18633e-05
1.24283e-07
5.21016e-05
1.47704e-06
5.22146e-05
2.85728e-06
5.21837e-05
4.26534e-06
5.19853e-05
5.67128e-06
5.15936e-05
7.02621e-06
5.09965e-05
8.29619e-06
5.01954e-05
9.45557e-06
4.91902e-05
1.04813e-05
4.79671e-05
1.13407e-05
4.65057e-05
1.20087e-05
4.48123e-05
1.24506e-05
4.28914e-05
1.26445e-05
4.07383e-05
1.25725e-05
3.83604e-05
1.22426e-05
3.58248e-05
1.16224e-05
3.32221e-05
1.07652e-05
3.07184e-05
9.66306e-06
2.84312e-05
8.47274e-06
2.65017e-05
7.1262e-06
2.49285e-05
5.8605e-06
2.37582e-05
4.43558e-06
2.29029e-05
3.22247e-06
2.23753e-05
1.74242e-06
2.20898e-05
5.82448e-07
2.20479e-05
-8.92572e-07
2.22206e-05
-1.94516e-06
2.25386e-05
-3.34566e-06
2.30222e-05
-4.23717e-06
2.35667e-05
-5.34011e-06
2.41878e-05
-5.99577e-06
2.48243e-05
-6.61948e-06
-7.04291e-06
-1.44541e-06
1.39386e-06
-3.58698e-06
1.88325e-06
-5.55756e-06
1.65468e-06
-7.12331e-06
1.37937e-06
-8.25117e-06
1.23906e-06
-8.98221e-06
1.23882e-06
-9.37279e-06
1.33918e-06
-9.49477e-06
1.45121e-06
-9.42311e-06
1.50154e-06
-9.22028e-06
1.42412e-06
-8.92539e-06
1.1895e-06
-8.55412e-06
8.16876e-07
-8.0761e-06
3.67731e-07
-7.42236e-06
-5.12145e-08
-6.52334e-06
-3.0709e-07
-5.28899e-06
-3.23935e-07
-3.65886e-06
-5.21172e-09
-1.64344e-06
6.12563e-07
7.21855e-07
1.34502e-06
3.3709e-06
1.99286e-06
6.17546e-06
2.41282e-06
8.96919e-06
2.41115e-06
1.16212e-05
1.96772e-06
1.4047e-05
1.1384e-06
1.62248e-05
2.78912e-08
1.82254e-05
-1.29793e-06
2.00515e-05
-2.69887e-06
2.17826e-05
-4.1359e-06
2.3496e-05
-5.57012e-06
2.52627e-05
-7.00741e-06
2.71202e-05
-8.42321e-06
2.90875e-05
-9.82896e-06
3.11593e-05
-1.11965e-05
3.32978e-05
-1.24825e-05
3.54546e-05
-1.36647e-05
3.75658e-05
-1.46811e-05
3.95676e-05
-1.54882e-05
4.14011e-05
-1.60465e-05
4.30171e-05
-1.6324e-05
4.43867e-05
-1.63209e-05
4.54975e-05
-1.60471e-05
4.63575e-05
-1.55278e-05
4.69914e-05
-1.48066e-05
4.74332e-05
-1.39315e-05
4.77234e-05
-1.29531e-05
4.79063e-05
-1.19258e-05
4.80218e-05
-1.08891e-05
4.81094e-05
-9.88076e-06
4.82072e-05
-8.92452e-06
4.83431e-05
-8.02564e-06
4.85419e-05
-7.17885e-06
4.88137e-05
-6.36022e-06
4.91652e-05
-5.54193e-06
4.95884e-05
-4.68918e-06
5.00619e-05
-3.76465e-06
5.05635e-05
-2.73644e-06
5.10479e-05
-1.58535e-06
5.14743e-05
-3.021e-07
5.18619e-05
1.08945e-06
5.21364e-05
2.58272e-06
5.22834e-05
4.1184e-06
5.22988e-05
5.6558e-06
5.21723e-05
7.15275e-06
5.1898e-05
8.57045e-06
5.14787e-05
9.87494e-06
5.09126e-05
1.10474e-05
5.01935e-05
1.20598e-05
4.93113e-05
1.28909e-05
4.82662e-05
1.34958e-05
4.7043e-05
1.38677e-05
4.5645e-05
1.39705e-05
4.40639e-05
1.38237e-05
4.23279e-05
1.33584e-05
4.04448e-05
1.26484e-05
3.85073e-05
1.16006e-05
3.65742e-05
1.04058e-05
3.47831e-05
8.91733e-06
3.3179e-05
7.46464e-06
3.18557e-05
5.75883e-06
3.08074e-05
4.27074e-06
3.00354e-05
2.51447e-06
2.95118e-05
1.10601e-06
2.92152e-05
-5.95975e-07
2.91361e-05
-1.86606e-06
2.91766e-05
-3.38611e-06
2.93459e-05
-4.40647e-06
2.95552e-05
-5.54946e-06
2.97895e-05
-6.23001e-06
3.00245e-05
-6.85454e-06
-7.16075e-06
-1.80568e-06
3.19953e-06
-2.98444e-06
3.06201e-06
-4.00331e-06
2.67355e-06
-4.80287e-06
2.17892e-06
-5.3127e-06
1.74889e-06
-5.52179e-06
1.44791e-06
-5.44565e-06
1.26304e-06
-5.10973e-06
1.11529e-06
-4.57252e-06
9.64327e-07
-3.89995e-06
7.51552e-07
-3.15008e-06
4.39627e-07
-2.36321e-06
3.00116e-08
-1.568e-06
-4.27486e-07
-7.2821e-07
-8.91001e-07
2.61471e-07
-1.29677e-06
1.47563e-06
-1.53809e-06
3.02778e-06
-1.55737e-06
4.99667e-06
-1.35633e-06
7.37233e-06
-1.03064e-06
1.00796e-05
-7.14412e-07
1.29981e-05
-5.05692e-07
1.5955e-05
-5.45782e-07
1.88162e-05
-8.93464e-07
2.14904e-05
-1.53574e-06
2.39773e-05
-2.45908e-06
2.62585e-05
-3.57912e-06
2.84087e-05
-4.84908e-06
3.04895e-05
-6.21665e-06
3.2543e-05
-7.6236e-06
3.4604e-05
-9.06842e-06
3.66747e-05
-1.04939e-05
3.87418e-05
-1.1896e-05
4.076e-05
-1.32147e-05
4.26715e-05
-1.4394e-05
4.44157e-05
-1.5409e-05
4.59295e-05
-1.61949e-05
4.71705e-05
-1.67292e-05
4.81098e-05
-1.69858e-05
4.8741e-05
-1.69552e-05
4.90829e-05
-1.66628e-05
4.91674e-05
-1.61316e-05
4.90473e-05
-1.54077e-05
4.87815e-05
-1.45408e-05
4.84248e-05
-1.35748e-05
4.80287e-05
-1.2557e-05
4.76375e-05
-1.15346e-05
4.7285e-05
-1.05365e-05
4.69991e-05
-9.59486e-06
4.68102e-05
-8.73564e-06
4.67434e-05
-7.9589e-06
4.68111e-05
-7.24651e-06
4.70204e-05
-6.56952e-06
4.73696e-05
-5.89111e-06
4.78358e-05
-5.15544e-06
4.83841e-05
-4.31291e-06
4.89786e-05
-3.3309e-06
4.95732e-05
-2.18002e-06
5.01286e-05
-8.57499e-07
5.06231e-05
5.95007e-07
5.0993e-05
2.2128e-06
5.12344e-05
3.87699e-06
5.13476e-05
5.54263e-06
5.13339e-05
7.16642e-06
5.12025e-05
8.70182e-06
5.09711e-05
1.01064e-05
5.0653e-05
1.13655e-05
5.02638e-05
1.2449e-05
4.98023e-05
1.33523e-05
4.92692e-05
1.40289e-05
4.86398e-05
1.44971e-05
4.79154e-05
1.4695e-05
4.70656e-05
1.46735e-05
4.61029e-05
1.43211e-05
4.49994e-05
1.37518e-05
4.38002e-05
1.27999e-05
4.25121e-05
1.16939e-05
4.12208e-05
1.02086e-05
3.99645e-05
8.72098e-06
3.88196e-05
6.90368e-06
3.7824e-05
5.26636e-06
3.69888e-05
3.34967e-06
3.63338e-05
1.76104e-06
3.58033e-05
-6.55132e-08
3.54414e-05
-1.5041e-06
3.51582e-05
-3.10297e-06
3.49584e-05
-4.20661e-06
3.47777e-05
-5.36881e-06
3.45993e-05
-6.05162e-06
3.44087e-05
-6.66392e-06
-6.88435e-06
-5.26745e-07
3.72628e-06
-1.30884e-07
2.66615e-06
3.72756e-07
2.16991e-06
9.71209e-07
1.58047e-06
1.68e-06
1.0401e-06
2.51885e-06
6.09066e-07
3.51732e-06
2.64576e-07
4.67172e-06
-3.91189e-08
5.93871e-06
-3.02663e-07
7.29613e-06
-6.05868e-07
8.70106e-06
-9.65307e-07
1.00973e-05
-1.36625e-06
1.14752e-05
-1.80538e-06
1.28081e-05
-2.2239e-06
1.4106e-05
-2.59464e-06
1.54239e-05
-2.85598e-06
1.68366e-05
-2.9701e-06
1.84431e-05
-2.96286e-06
2.02912e-05
-2.87875e-06
2.23894e-05
-2.81259e-06
2.47016e-05
-2.81791e-06
2.71419e-05
-2.98601e-06
2.96284e-05
-3.38003e-06
3.20779e-05
-3.98523e-06
3.44475e-05
-4.82865e-06
3.67146e-05
-5.84624e-06
3.88901e-05
-7.02462e-06
4.09743e-05
-8.30079e-06
4.29665e-05
-9.61581e-06
4.48515e-05
-1.09535e-05
4.65942e-05
-1.22366e-05
4.8149e-05
-1.34508e-05
4.94651e-05
-1.45308e-05
5.05049e-05
-1.54337e-05
5.12301e-05
-1.61342e-05
5.16158e-05
-1.65806e-05
5.16724e-05
-1.67858e-05
5.14247e-05
-1.6738e-05
5.09279e-05
-1.64585e-05
5.02533e-05
-1.59882e-05
4.94697e-05
-1.5348e-05
4.86534e-05
-1.45913e-05
4.78591e-05
-1.37465e-05
4.71272e-05
-1.28428e-05
4.64795e-05
-1.19093e-05
4.59232e-05
-1.09782e-05
4.54689e-05
-1.00823e-05
4.51214e-05
-9.24738e-06
4.48942e-05
-8.50843e-06
4.48119e-05
-7.87659e-06
4.48865e-05
-7.32104e-06
4.51222e-05
-6.80525e-06
4.55136e-05
-6.2825e-06
4.60329e-05
-5.67477e-06
4.66411e-05
-4.92111e-06
4.72933e-05
-3.98307e-06
4.7943e-05
-2.82978e-06
4.8571e-05
-1.48543e-06
4.91367e-05
2.92633e-08
4.95565e-05
1.79301e-06
4.98587e-05
3.57483e-06
5.00225e-05
5.37875e-06
5.00485e-05
7.14051e-06
4.99501e-05
8.80016e-06
4.97523e-05
1.03042e-05
4.94813e-05
1.16364e-05
4.91753e-05
1.27551e-05
4.88541e-05
1.36735e-05
4.85414e-05
1.43415e-05
4.82275e-05
1.48111e-05
4.79189e-05
1.50036e-05
4.75804e-05
1.5012e-05
4.72084e-05
1.46931e-05
4.67577e-05
1.42025e-05
4.6232e-05
1.33256e-05
4.56065e-05
1.23193e-05
4.49099e-05
1.09051e-05
4.4159e-05
9.47192e-06
4.339e-05
7.67268e-06
4.26427e-05
6.01364e-06
4.19295e-05
4.06294e-06
4.12808e-05
2.40966e-06
4.06628e-05
5.52489e-07
4.011e-05
-9.51301e-07
3.95775e-05
-2.57047e-06
3.90709e-05
-3.69999e-06
3.85548e-05
-4.85267e-06
3.80312e-05
-5.52801e-06
3.74841e-05
-6.11686e-06
-6.30452e-06
3.94017e-06
-2.13894e-07
6.97811e-06
-3.71782e-07
9.68865e-06
-5.40629e-07
1.20478e-05
-7.78726e-07
1.41264e-05
-1.03846e-06
1.6034e-05
-1.29852e-06
1.78481e-05
-1.54953e-06
1.95946e-05
-1.78565e-06
2.13293e-05
-2.03736e-06
2.30408e-05
-2.3173e-06
2.47195e-05
-2.64409e-06
2.63481e-05
-2.99486e-06
2.79129e-05
-3.37017e-06
2.94108e-05
-3.72176e-06
3.08415e-05
-4.02538e-06
3.22442e-05
-4.25863e-06
3.36563e-05
-4.38226e-06
3.51308e-05
-4.43729e-06
3.66807e-05
-4.42872e-06
3.83181e-05
-4.44991e-06
4.00356e-05
-4.53544e-06
4.18086e-05
-4.75902e-06
4.36e-05
-5.17145e-06
4.53604e-05
-5.74557e-06
4.7056e-05
-6.52432e-06
4.86479e-05
-7.4381e-06
5.01091e-05
-8.48582e-06
5.14086e-05
-9.6003e-06
5.25276e-05
-1.07348e-05
5.34286e-05
-1.18545e-05
5.40745e-05
-1.28825e-05
5.44398e-05
-1.3816e-05
5.44949e-05
-1.4586e-05
5.42518e-05
-1.51906e-05
5.37173e-05
-1.55997e-05
5.29292e-05
-1.57925e-05
5.19524e-05
-1.5809e-05
5.08601e-05
-1.56457e-05
4.97427e-05
-1.5341e-05
4.86754e-05
-1.4921e-05
4.7708e-05
-1.43806e-05
4.68757e-05
-1.3759e-05
4.61668e-05
-1.30376e-05
4.55617e-05
-1.22378e-05
4.50365e-05
-1.13841e-05
4.4539e-05
-1.04808e-05
4.407e-05
-9.61325e-06
4.36509e-05
-8.82832e-06
4.32898e-05
-8.14734e-06
4.30223e-05
-7.60904e-06
4.28929e-05
-7.19168e-06
4.29172e-05
-6.8296e-06
4.30904e-05
-6.45569e-06
4.34101e-05
-5.99441e-06
4.38576e-05
-5.36863e-06
4.44061e-05
-4.53153e-06
4.50149e-05
-3.43865e-06
4.563e-05
-2.10044e-06
4.62118e-05
-5.52633e-07
4.67556e-05
1.24928e-06
4.71931e-05
3.13734e-06
4.7516e-05
5.05584e-06
4.77248e-05
6.93167e-06
4.78184e-05
8.7066e-06
4.78037e-05
1.03189e-05
4.76939e-05
1.17462e-05
4.75174e-05
1.29316e-05
4.72976e-05
1.38933e-05
4.70735e-05
1.45656e-05
4.68637e-05
1.50209e-05
4.6698e-05
1.51693e-05
4.65721e-05
1.51379e-05
4.64856e-05
1.47796e-05
4.64056e-05
1.42825e-05
4.63086e-05
1.34226e-05
4.61606e-05
1.24674e-05
4.59404e-05
1.11253e-05
4.56452e-05
9.76711e-06
4.5267e-05
8.05094e-06
4.48299e-05
6.45072e-06
4.43331e-05
4.5597e-06
4.3801e-05
2.94178e-06
4.32318e-05
1.1217e-06
4.2619e-05
-3.38534e-07
4.19722e-05
-1.92364e-06
4.12943e-05
-3.0221e-06
4.05801e-05
-4.13848e-06
3.98465e-05
-4.79442e-06
3.90854e-05
-5.35572e-06
-5.54652e-06
3.88173e-05
-4.83199e-08
3.89429e-05
-4.97363e-07
3.9251e-05
-8.48743e-07
3.96453e-05
-1.173e-06
4.00974e-05
-1.49057e-06
4.063e-05
-1.83112e-06
4.12505e-05
-2.16999e-06
4.19403e-05
-2.47547e-06
4.26953e-05
-2.79239e-06
4.34855e-05
-3.10746e-06
4.42923e-05
-3.45091e-06
4.50878e-05
-3.79037e-06
4.58547e-05
-4.13704e-06
4.65901e-05
-4.45714e-06
4.72914e-05
-4.72672e-06
4.79779e-05
-4.94507e-06
4.86726e-05
-5.07703e-06
4.94064e-05
-5.17104e-06
5.01918e-05
-5.21415e-06
5.10318e-05
-5.28991e-06
5.1916e-05
-5.41965e-06
5.28157e-05
-5.65868e-06
5.36872e-05
-6.04293e-06
5.44994e-05
-6.55779e-06
5.52108e-05
-7.23577e-06
5.57821e-05
-8.00936e-06
5.61912e-05
-8.89495e-06
5.63991e-05
-9.80817e-06
5.64014e-05
-1.07372e-05
5.61752e-05
-1.16283e-05
5.57183e-05
-1.24256e-05
5.50391e-05
-1.31369e-05
5.41547e-05
-1.37016e-05
5.31269e-05
-1.41629e-05
5.19938e-05
-1.44665e-05
5.08468e-05
-1.46455e-05
4.97452e-05
-1.47074e-05
4.87341e-05
-1.46346e-05
4.78611e-05
-1.4468e-05
4.71203e-05
-1.41801e-05
4.64971e-05
-1.37574e-05
4.59438e-05
-1.32058e-05
4.53936e-05
-1.24873e-05
4.4786e-05
-1.16302e-05
4.4108e-05
-1.07061e-05
4.33111e-05
-9.68384e-06
4.23888e-05
-8.69095e-06
4.14328e-05
-7.87234e-06
4.04874e-05
-7.20195e-06
3.95721e-05
-6.69374e-06
3.87704e-05
-6.39e-06
3.8145e-05
-6.20418e-06
3.7735e-05
-6.04567e-06
3.76055e-05
-5.86496e-06
3.77874e-05
-5.55048e-06
3.82508e-05
-4.99493e-06
3.89194e-05
-4.10729e-06
3.96849e-05
-2.86592e-06
4.04376e-05
-1.30538e-06
4.12008e-05
4.86078e-07
4.18768e-05
2.46136e-06
4.24605e-05
4.47219e-06
4.29708e-05
6.42132e-06
4.34089e-05
8.26849e-06
4.37748e-05
9.9531e-06
4.40674e-05
1.14536e-05
4.42872e-05
1.27118e-05
4.44341e-05
1.37464e-05
4.45203e-05
1.44794e-05
4.45652e-05
1.4976e-05
4.45994e-05
1.51351e-05
4.46492e-05
1.50881e-05
4.47284e-05
1.47005e-05
4.48412e-05
1.41697e-05
4.49645e-05
1.32993e-05
4.50828e-05
1.23491e-05
4.51508e-05
1.10572e-05
4.51606e-05
9.75738e-06
4.50714e-05
8.14008e-06
4.48965e-05
6.62561e-06
4.46097e-05
4.84655e-06
4.42386e-05
3.31284e-06
4.37696e-05
1.59072e-06
4.32004e-05
2.30672e-07
4.25554e-05
-1.27867e-06
4.18398e-05
-2.30643e-06
4.10689e-05
-3.36761e-06
4.02591e-05
-3.98468e-06
3.9423e-05
-4.51957e-06
-4.72028e-06
5.31438e-05
2.00547e-09
5.31487e-05
-5.02299e-07
5.32322e-05
-9.32296e-07
5.33704e-05
-1.31117e-06
5.35324e-05
-1.65253e-06
5.36857e-05
-1.98444e-06
5.38337e-05
-2.318e-06
5.40011e-05
-2.64285e-06
5.41819e-05
-2.97317e-06
5.43659e-05
-3.29147e-06
5.45346e-05
-3.61963e-06
5.4679e-05
-3.93478e-06
5.47865e-05
-4.24453e-06
5.48588e-05
-4.52942e-06
5.49068e-05
-4.7747e-06
5.49435e-05
-4.98185e-06
5.49972e-05
-5.13067e-06
5.50833e-05
-5.25715e-06
5.52183e-05
-5.34919e-06
5.53986e-05
-5.47015e-06
5.56071e-05
-5.62819e-06
5.58228e-05
-5.8744e-06
5.6004e-05
-6.22408e-06
5.61268e-05
-6.68063e-06
5.61495e-05
-7.25841e-06
5.60534e-05
-7.91333e-06
5.58211e-05
-8.66266e-06
5.54389e-05
-9.42597e-06
5.49174e-05
-1.02157e-05
5.426e-05
-1.09709e-05
5.35039e-05
-1.16694e-05
5.26809e-05
-1.23139e-05
5.18119e-05
-1.28326e-05
5.09475e-05
-1.32984e-05
5.01026e-05
-1.36216e-05
4.9337e-05
-1.388e-05
4.86356e-05
-1.40059e-05
4.79786e-05
-1.39776e-05
4.73432e-05
-1.38326e-05
4.66547e-05
-1.34916e-05
4.59134e-05
-1.30161e-05
4.50369e-05
-1.23293e-05
4.39968e-05
-1.14473e-05
4.27529e-05
-1.03863e-05
4.12836e-05
-9.2368e-06
3.96724e-05
-8.0726e-06
3.78681e-05
-6.8866e-06
3.59174e-05
-5.92171e-06
3.40172e-05
-5.3017e-06
3.21409e-05
-4.81743e-06
3.03737e-05
-4.62282e-06
2.90191e-05
-4.84963e-06
2.83429e-05
-5.36944e-06
2.84328e-05
-5.95483e-06
2.91521e-05
-6.26981e-06
3.02332e-05
-6.07605e-06
3.14376e-05
-5.31165e-06
3.26127e-05
-4.04101e-06
3.36917e-05
-2.38444e-06
3.46444e-05
-4.66637e-07
3.54415e-05
1.66428e-06
3.6137e-05
3.77673e-06
3.67614e-05
5.79686e-06
3.73596e-05
7.67035e-06
3.79574e-05
9.35527e-06
3.85631e-05
1.08479e-05
3.91626e-05
1.21122e-05
3.97379e-05
1.3171e-05
4.0265e-05
1.39524e-05
4.07376e-05
1.45033e-05
4.11528e-05
1.472e-05
4.15331e-05
1.47077e-05
4.18839e-05
1.43496e-05
4.22325e-05
1.38212e-05
4.25619e-05
1.29698e-05
4.28836e-05
1.20274e-05
4.31517e-05
1.07892e-05
4.33698e-05
9.53929e-06
4.34839e-05
8.02602e-06
4.35081e-05
6.60136e-06
4.33963e-05
4.95836e-06
4.31817e-05
3.52746e-06
4.28302e-05
1.94221e-06
4.23773e-05
6.83516e-07
4.17975e-05
-6.98841e-07
4.11325e-05
-1.64145e-06
4.03949e-05
-2.63e-06
3.95979e-05
-3.18765e-06
3.87758e-05
-3.69746e-06
-3.89362e-06
5.44566e-05
-3.6708e-07
5.46718e-05
-7.17492e-07
5.48316e-05
-1.09212e-06
5.49754e-05
-1.45493e-06
5.51115e-05
-1.78863e-06
5.52259e-05
-2.09885e-06
5.53104e-05
-2.40256e-06
5.53688e-05
-2.70119e-06
5.5399e-05
-3.00343e-06
5.54073e-05
-3.29975e-06
5.53831e-05
-3.59542e-06
5.53294e-05
-3.88106e-06
5.52404e-05
-4.15559e-06
5.51224e-05
-4.41144e-06
5.49874e-05
-4.63962e-06
5.48464e-05
-4.84092e-06
5.47239e-05
-5.00812e-06