/*--------------------------------*- C++ -*----------------------------------*\
| =========                 |                                                 |
| \\      /  F ield         | OpenFOAM: The Open Source CFD Toolbox           |
|  \\    /   O peration     | Version:  2306                                  |
|   \\  /    A nd           | Website:  www.openfoam.com                      |
|    \\/     M anipulation  |                                                 |
\*---------------------------------------------------------------------------*/
FoamFile
{
    version     2.0;
    format      ascii;
    arch        "LSB;label=32;scalar=64";
    class       volVectorField;
    location    "1";
    object      U;
}
// * * * * * * * * * * * * * * * * * * * * * * * * * * * * * * * * * * * * * //

dimensions      [0 1 -1 0 0 0 0];

internalField   nonuniform List<vector> 
1900
(
(0.98442 0.00725527 0)
(0.96163 0.0217106 0)
(0.952686 0.0180758 0)
(0.918659 0.025295 0)
(0.904174 0.0152392 0)
(0.863349 0.0257047 0)
(0.853776 0.0112382 0)
(0.812986 0.0266051 0)
(0.81243 0.00395174 0)
(0.772967 0.0256608 0)
(1.00263 0.0115267 0)
(1.00438 0.0258196 0)
(1.01964 0.0287888 0)
(1.02202 0.0302793 0)
(1.03535 0.0276402 0)
(1.03437 0.0280219 0)
(1.045 0.0251327 0)
(1.04391 0.0242988 0)
(1.05294 0.0195467 0)
(1.05464 0.0147672 0)
(1.00048 0.00384135 0)
(1.00421 0.0110686 0)
(1.01263 0.0137617 0)
(1.02124 0.0155161 0)
(1.0318 0.0142296 0)
(1.04087 0.0138278 0)
(1.05057 0.0115044 0)
(1.05917 0.00977213 0)
(1.06803 0.00575339 0)
(1.07632 0.00103341 0)
(1.00004 0.00203311 0)
(1.00317 0.00571911 0)
(1.00892 0.00780636 0)
(1.01658 0.00868088 0)
(1.02545 0.00802403 0)
(1.03455 0.00672401 0)
(1.04362 0.00467761 0)
(1.05227 0.00215719 0)
(1.06067 -0.00110105 0)
(1.06854 -0.00525164 0)
(1.00001 0.000374373 0)
(1.00263 0.00103025 0)
(1.00738 0.00116863 0)
(1.01406 0.000746088 0)
(1.02196 -0.000328137 0)
(1.03044 -0.00193507 0)
(1.03892 -0.00401411 0)
(1.0471 -0.00660438 0)
(1.05485 -0.00973902 0)
(1.06206 -0.0135316 0)
(1.00001 -0.00110906 0)
(1.00256 -0.00317184 0)
(1.00717 -0.00500542 0)
(1.01365 -0.00659264 0)
(1.02126 -0.00805035 0)
(1.02943 -0.00965341 0)
(1.03746 -0.0115358 0)
(1.0452 -0.0139009 0)
(1.05237 -0.0167615 0)
(1.0591 -0.0201343 0)
(1.00003 -0.00275366 0)
(1.00302 -0.00756465 0)
(1.00831 -0.0112878 0)
(1.01538 -0.0138556 0)
(1.0233 -0.0156291 0)
(1.03142 -0.0172014 0)
(1.03914 -0.018972 0)
(1.04644 -0.0211501 0)
(1.05313 -0.0237556 0)
(1.05944 -0.0267004 0)
(1.00004 -0.00480447 0)
(1.00439 -0.0123481 0)
(1.0113 -0.0171108 0)
(1.01967 -0.0196523 0)
(1.02815 -0.0211087 0)
(1.03604 -0.0224554 0)
(1.04303 -0.0241503 0)
(1.0493 -0.0262257 0)
(1.05482 -0.0285861 0)
(1.05976 -0.0310804 0)
(1.00006 -0.0121422 0)
(1.00719 -0.0260275 0)
(1.01549 -0.0315595 0)
(1.02269 -0.0327837 0)
(1.0276 -0.0329568 0)
(1.0302 -0.0334537 0)
(1.03093 -0.0343868 0)
(1.03026 -0.0355115 0)
(1.02834 -0.0366211 0)
(1.0252 -0.0376726 0)
(0.980776 -0.0091705 0)
(0.96455 -0.0188445 0)
(0.945347 -0.0220893 0)
(0.920559 -0.0222552 0)
(0.891592 -0.0218447 0)
(0.861025 -0.0217281 0)
(0.830428 -0.0218239 0)
(0.800256 -0.0218976 0)
(0.770393 -0.0218362 0)
(0.740551 -0.0216573 0)
(0.00142856 -0.00219959 0)
(0.0149452 -0.00755719 0)
(0.0375624 -0.00849599 0)
(0.0568305 -0.00588477 0)
(0.0698799 -0.00187985 0)
(0.0751394 0.00215419 0)
(0.072954 0.00530313 0)
(0.0648632 0.00711027 0)
(0.0533534 0.00719423 0)
(0.0414706 0.00572398 0)
(0.0317868 0.0032913 0)
(0.0259532 0.000642457 0)
(0.0244214 -0.00175391 0)
(0.0269659 -0.0037072 0)
(0.0330941 -0.00500691 0)
(0.0416807 -0.00541878 0)
(0.0511638 -0.00482782 0)
(0.0611055 -0.00484669 0)
(0.0716849 -0.00903756 0)
(0.0803602 -0.0189878 0)
(0.0818749 -0.0242025 0)
(0.0651585 -0.00767877 0)
(0.0146528 0.0259634 0)
(-0.0661768 0.0460248 0)
(-0.149836 0.0475859 0)
(-0.221879 0.0419506 0)
(-0.279886 0.0344846 0)
(-0.323465 0.0269345 0)
(-0.354075 0.0200084 0)
(-0.37317 0.0140075 0)
(-0.382244 0.00899374 0)
(-0.382736 0.00454376 0)
(-0.375771 0.000480446 0)
(-0.362147 -0.00321676 0)
(-0.342469 -0.0065329 0)
(-0.317183 -0.00956746 0)
(-0.286783 -0.0122983 0)
(-0.25187 -0.0146794 0)
(-0.213001 -0.0166725 0)
(-0.170943 -0.0181962 0)
(-0.126414 -0.019224 0)
(-0.0803709 -0.0195509 0)
(-0.0336409 -0.0193898 0)
(0.0127792 -0.0188009 0)
(0.0579285 -0.0177594 0)
(0.100998 -0.0163482 0)
(0.141237 -0.014636 0)
(0.178067 -0.012691 0)
(0.211047 -0.0105766 0)
(0.23987 -0.00833173 0)
(0.264296 -0.00601546 0)
(0.284125 -0.00362923 0)
(0.299193 -0.00102472 0)
(0.309142 0.00167405 0)
(0.313545 0.00436424 0)
(0.312318 0.00772086 0)
(0.304938 0.011609 0)
(0.291013 0.0156689 0)
(0.269961 0.019642 0)
(0.241924 0.0220371 0)
(0.208963 0.0202768 0)
(0.175098 0.0131377 0)
(0.144637 0.00269901 0)
(0.120406 -0.00642107 0)
(0.103136 -0.0103352 0)
(0.0914577 -0.0082706 0)
(0.0832751 -0.00318183 0)
(0.0769645 0.000703706 0)
(0.071325 0.00191683 0)
(0.0653162 0.00197862 0)
(0.0578794 0.00242116 0)
(0.0482404 0.003645 0)
(0.0362047 0.00531211 0)
(0.0219572 0.00690928 0)
(0.00585296 0.00803987 0)
(-0.0113738 0.00867172 0)
(-0.0286089 0.008771 0)
(-0.0449865 0.00841509 0)
(-0.059633 0.00759172 0)
(-0.0718817 0.00649614 0)
(-0.0810156 0.00504521 0)
(-0.0868215 0.00352219 0)
(-0.0885945 0.00165006 0)
(-0.0869025 -7.5129e-05 0)
(-0.080959 -0.00237106 0)
(-0.0717576 -0.00389452 0)
(-0.0588076 -0.00557002 0)
(-0.0423357 -0.00678839 0)
(-0.0280357 -0.00784241 0)
(0.00236644 -0.00581467 0)
(0.00560168 -0.0137785 0)
(0.0265265 -0.0319079 0)
(0.0542314 -0.0349134 0)
(0.0778119 -0.0279096 0)
(0.0956606 -0.0167077 0)
(0.106706 -0.00469188 0)
(0.11087 0.00577935 0)
(0.108774 0.013269 0)
(0.101595 0.0168054 0)
(0.0917185 0.0163389 0)
(0.0817656 0.0127013 0)
(0.0741401 0.00696857 0)
(0.0698061 0.000649007 0)
(0.0695428 -0.00517066 0)
(0.073297 -0.0101593 0)
(0.0789296 -0.0135701 0)
(0.0834477 -0.01505 0)
(0.0823398 -0.0165493 0)
(0.0660696 -0.0132264 0)
(0.0201614 0.00676581 0)
(-0.0574885 0.044894 0)
(-0.144859 0.0842 0)
(-0.224666 0.109219 0)
(-0.293463 0.11302 0)
(-0.346745 0.102979 0)
(-0.386419 0.0854945 0)
(-0.412829 0.0658942 0)
(-0.427385 0.046664 0)
(-0.431564 0.0290016 0)
(-0.426652 0.0133971 0)
(-0.414494 -0.000288134 0)
(-0.39543 -0.0121261 0)
(-0.370375 -0.0226919 0)
(-0.339661 -0.0321552 0)
(-0.303815 -0.0407398 0)
(-0.263172 -0.0486222 0)
(-0.218109 -0.055694 0)
(-0.169139 -0.0618782 0)
(-0.116773 -0.0669738 0)
(-0.0618717 -0.0708642 0)
(-0.00488652 -0.0733694 0)
(0.0533373 -0.0745039 0)
(0.111502 -0.0742397 0)
(0.168852 -0.0726596 0)
(0.224652 -0.069799 0)
(0.278165 -0.0658379 0)
(0.328739 -0.0609915 0)
(0.37586 -0.0554521 0)
(0.419157 -0.04939 0)
(0.458403 -0.0429955 0)
(0.493434 -0.0362978 0)
(0.523952 -0.0293236 0)
(0.549989 -0.0220985 0)
(0.571288 -0.0144035 0)
(0.587421 -0.00636545 0)
(0.598585 0.00223096 0)
(0.60404 0.0115336 0)
(0.60316 0.0212121 0)
(0.595597 0.031277 0)
(0.581695 0.0412122 0)
(0.561819 0.0494404 0)
(0.535588 0.0548127 0)
(0.50107 0.0562228 0)
(0.454956 0.0518319 0)
(0.397948 0.0420254 0)
(0.336869 0.0301859 0)
(0.280663 0.019575 0)
(0.23396 0.0119743 0)
(0.197823 0.0091895 0)
(0.170562 0.0114984 0)
(0.148136 0.0157142 0)
(0.126754 0.0196036 0)
(0.104566 0.0227739 0)
(0.0816081 0.0251909 0)
(0.0588011 0.0265234 0)
(0.0371567 0.0266323 0)
(0.0177612 0.0253712 0)
(0.00110343 0.0228393 0)
(-0.0120404 0.0191685 0)
(-0.0215596 0.0147547 0)
(-0.0265103 0.00945297 0)
(-0.027744 0.00406484 0)
(-0.0235422 -0.00214387 0)
(-0.0163087 -0.00764163 0)
(-0.00309679 -0.0143094 0)
(0.0138878 -0.0188748 0)
(0.0332634 -0.025106 0)
(0.0618102 -0.0275538 0)
(0.078212 -0.0334941 0)
(0.127412 -0.0314512 0)
(0.00793501 -0.0326657 0)
(0.024834 -0.0591944 0)
(0.0417231 -0.0603671 0)
(0.054958 -0.0484175 0)
(0.0649724 -0.0312844 0)
(0.0718346 -0.0130218 0)
(0.0752472 0.00342594 0)
(0.0754475 0.0155943 0)
(0.0724564 0.0225441 0)
(0.0675169 0.0239753 0)
(0.0620293 0.0204081 0)
(0.0576776 0.0129957 0)
(0.0551074 0.00340056 0)
(0.0539804 -0.00660461 0)
(0.0516712 -0.0145657 0)
(0.0436275 -0.016459 0)
(0.024537 -0.00703226 0)
(-0.0110535 0.0173373 0)
(-0.0637673 0.0545083 0)
(-0.125765 0.0946273 0)
(-0.187506 0.128114 0)
(-0.240396 0.151902 0)
(-0.279344 0.160734 0)
(-0.304199 0.152411 0)
(-0.316697 0.131466 0)
(-0.319504 0.1038 0)
(-0.314529 0.0742406 0)
(-0.303245 0.0458129 0)
(-0.286977 0.0198572 0)
(-0.26661 -0.00311778 0)
(-0.242339 -0.0232557 0)
(-0.213795 -0.0408416 0)
(-0.181538 -0.0563964 0)
(-0.145561 -0.0704035 0)
(-0.106033 -0.0833491 0)
(-0.0629381 -0.0953785 0)
(-0.0165049 -0.106209 0)
(0.0334479 -0.115701 0)
(0.0861957 -0.123609 0)
(0.140698 -0.129688 0)
(0.196207 -0.133465 0)
(0.252148 -0.135106 0)
(0.307576 -0.134554 0)
(0.361724 -0.131743 0)
(0.413912 -0.126833 0)
(0.463536 -0.12015 0)
(0.51015 -0.112036 0)
(0.553357 -0.10281 0)
(0.593019 -0.0928364 0)
(0.629092 -0.0823227 0)
(0.661434 -0.0713401 0)
(0.690137 -0.0600012 0)
(0.715154 -0.0481853 0)
(0.736443 -0.0357891 0)
(0.753886 -0.0227418 0)
(0.767332 -0.0089595 0)
(0.776678 0.00549961 0)
(0.781387 0.0206061 0)
(0.781375 0.0363277 0)
(0.776386 0.052167 0)
(0.765877 0.0667738 0)
(0.749728 0.0785583 0)
(0.726074 0.0871942 0)
(0.693375 0.0932949 0)
(0.652418 0.0973255 0)
(0.604196 0.0992237 0)
(0.549263 0.097301 0)
(0.484331 0.0871604 0)
(0.41206 0.0697199 0)
(0.343632 0.0534385 0)
(0.287883 0.0447265 0)
(0.245811 0.0438955 0)
(0.213184 0.047112 0)
(0.185571 0.0499421 0)
(0.160713 0.0501331 0)
(0.138009 0.0477054 0)
(0.118191 0.043141 0)
(0.101335 0.0369637 0)
(0.0885999 0.0292987 0)
(0.0789115 0.0208274 0)
(0.0746606 0.0108969 0)
(0.0728574 0.00123707 0)
(0.077664 -0.0103391 0)
(0.0843826 -0.0195101 0)
(0.0968588 -0.0319819 0)
(0.114827 -0.038611 0)
(0.130138 -0.051405 0)
(0.16387 -0.0546592 0)
(0.173785 -0.0643815 0)
(0.227365 -0.0677121 0)
(0.00510681 -0.0457151 0)
(0.00699032 -0.0688888 0)
(0.00485817 -0.0652473 0)
(0.00234405 -0.0510411 0)
(0.000245529 -0.0329929 0)
(-0.000897239 -0.0139432 0)
(-0.00197039 0.00342857 0)
(-0.00294183 0.0169418 0)
(-0.00419402 0.0249465 0)
(-0.00596343 0.0265591 0)
(-0.00836656 0.0220586 0)
(-0.0118857 0.0133232 0)
(-0.0176605 0.00358187 0)
(-0.0270757 -0.00208206 0)
(-0.0424972 0.00103568 0)
(-0.0646351 0.0147357 0)
(-0.0910046 0.0375326 0)
(-0.119736 0.0680599 0)
(-0.149805 0.102753 0)
(-0.178874 0.136685 0)
(-0.20181 0.162383 0)
(-0.213958 0.175483 0)
(-0.214362 0.172161 0)
(-0.205078 0.153639 0)
(-0.189619 0.12503 0)
(-0.170066 0.091781 0)
(-0.147809 0.0575955 0)
(-0.123787 0.0252201 0)
(-0.0986337 -0.00413741 0)
(-0.0720999 -0.0300436 0)
(-0.0434452 -0.0526026 0)
(-0.012549 -0.0726364 0)
(0.021394 -0.0908927 0)
(0.0585317 -0.107946 0)
(0.0987553 -0.124079 0)
(0.142333 -0.139365 0)
(0.188787 -0.153289 0)
(0.237916 -0.165365 0)
(0.289267 -0.175462 0)
(0.341925 -0.183016 0)
(0.394936 -0.18769 0)
(0.447423 -0.189252 0)
(0.498557 -0.187658 0)
(0.547653 -0.183022 0)
(0.594147 -0.175635 0)
(0.637577 -0.165994 0)
(0.67774 -0.154625 0)
(0.714514 -0.14201 0)
(0.747889 -0.128565 0)
(0.778072 -0.114603 0)
(0.805117 -0.100266 0)
(0.829186 -0.0855205 0)
(0.850458 -0.0703846 0)
(0.868861 -0.0545778 0)
(0.88442 -0.0380285 0)
(0.896958 -0.0206375 0)
(0.906366 -0.00224064 0)
(0.912373 0.0168114 0)
(0.914785 0.0365009 0)
(0.912939 0.0563792 0)
(0.906312 0.07575 0)
(0.894903 0.093639 0)
(0.878087 0.109289 0)
(0.855119 0.123186 0)
(0.825469 0.134895 0)
(0.7889 0.143279 0)
(0.744823 0.14706 0)
(0.692944 0.145479 0)
(0.635272 0.140268 0)
(0.571195 0.130794 0)
(0.499976 0.115362 0)
(0.429061 0.0977737 0)
(0.368828 0.0844928 0)
(0.322257 0.0773472 0)
(0.287009 0.0732184 0)
(0.258938 0.0687958 0)
(0.236657 0.0619509 0)
(0.21739 0.0529371 0)
(0.203416 0.0414535 0)
(0.190992 0.0294838 0)
(0.185704 0.0148802 0)
(0.180828 0.00200057 0)
(0.184317 -0.0153952 0)
(0.188646 -0.0272162 0)
(0.198732 -0.0462942 0)
(0.215124 -0.0552907 0)
(0.226695 -0.07298 0)
(0.258162 -0.0796356 0)
(0.265313 -0.0906927 0)
(0.31183 -0.0989519 0)
(-0.00305534 -0.0404432 0)
(-0.0221237 -0.0558519 0)
(-0.0451553 -0.05124 0)
(-0.0630786 -0.0396206 0)
(-0.0771947 -0.0248808 0)
(-0.0866428 -0.00877772 0)
(-0.0927365 0.00671127 0)
(-0.0965369 0.0193391 0)
(-0.0993935 0.0269253 0)
(-0.102329 0.0289919 0)
(-0.106608 0.0263969 0)
(-0.112956 0.0215414 0)
(-0.121033 0.0173129 0)
(-0.12966 0.0164162 0)
(-0.137742 0.0213012 0)
(-0.144881 0.0342297 0)
(-0.15052 0.0561467 0)
(-0.15396 0.0853659 0)
(-0.153802 0.116455 0)
(-0.148712 0.143474 0)
(-0.136523 0.161513 0)
(-0.116326 0.166724 0)
(-0.0893123 0.156066 0)
(-0.0585734 0.132866 0)
(-0.026765 0.101594 0)
(0.0044795 0.0669301 0)
(0.0346919 0.0320299 0)
(0.0644848 -0.00101128 0)
(0.0935159 -0.0312403 0)
(0.122713 -0.0585038 0)
(0.153124 -0.0832241 0)
(0.185422 -0.105838 0)
(0.22026 -0.126819 0)
(0.258283 -0.146951 0)
(0.299581 -0.16636 0)
(0.343848 -0.184642 0)
(0.390691 -0.20136 0)
(0.439382 -0.215884 0)
(0.489014 -0.227523 0)
(0.538572 -0.235728 0)
(0.586983 -0.240071 0)
(0.633375 -0.240325 0)
(0.677084 -0.236574 0)
(0.717658 -0.229175 0)
(0.754848 -0.218597 0)
(0.788482 -0.205508 0)
(0.818755 -0.190697 0)
(0.845808 -0.174664 0)
(0.86997 -0.158065 0)
(0.891651 -0.141171 0)
(0.91114 -0.124108 0)
(0.928775 -0.106928 0)
(0.944758 -0.0893059 0)
(0.959197 -0.0711829 0)
(0.971996 -0.0521195 0)
(0.983079 -0.0320476 0)
(0.992202 -0.0107792 0)
(0.998828 0.0116419 0)
(1.00293 0.0347648 0)
(1.00386 0.0581327 0)
(1.00095 0.0814823 0)
(0.993988 0.104191 0)
(0.982712 0.125413 0)
(0.966557 0.144777 0)
(0.944733 0.161681 0)
(0.916949 0.175458 0)
(0.883509 0.1855 0)
(0.844853 0.191666 0)
(0.801093 0.193631 0)
(0.750771 0.190253 0)
(0.693776 0.181218 0)
(0.631909 0.167626 0)
(0.568424 0.15036 0)
(0.506863 0.131502 0)
(0.453548 0.113539 0)
(0.409393 0.0980825 0)
(0.376744 0.0836239 0)
(0.349609 0.0700905 0)
(0.33241 0.0542781 0)
(0.316089 0.0394425 0)
(0.310255 0.0198246 0)
(0.302542 0.00404171 0)
(0.305857 -0.0189488 0)
(0.307465 -0.0338711 0)
(0.316948 -0.0575642 0)
(0.329436 -0.0702449 0)
(0.340191 -0.0902601 0)
(0.364603 -0.100614 0)
(0.371475 -0.112195 0)
(0.406169 -0.122296 0)
(-0.0127579 -0.0258728 0)
(-0.0501382 -0.0323963 0)
(-0.0887582 -0.0279163 0)
(-0.117939 -0.0198642 0)
(-0.141402 -0.00941965 0)
(-0.157043 0.00279363 0)
(-0.167238 0.0149106 0)
(-0.173301 0.0249377 0)
(-0.176882 0.0313634 0)
(-0.179044 0.0332972 0)
(-0.180566 0.0310124 0)
(-0.181355 0.0260013 0)
(-0.180667 0.020593 0)
(-0.177456 0.0176853 0)
(-0.170806 0.0202987 0)
(-0.159881 0.0302462 0)
(-0.14422 0.0482625 0)
(-0.123124 0.0722455 0)
(-0.0963367 0.0974665 0)
(-0.0641862 0.118916 0)
(-0.0260215 0.131905 0)
(0.0161187 0.132519 0)
(0.0595092 0.119796 0)
(0.102618 0.0965468 0)
(0.143388 0.0666392 0)
(0.18084 0.0334246 0)
(0.215593 0.000300791 0)
(0.248309 -0.0310543 0)
(0.279412 -0.0603563 0)
(0.310063 -0.0880283 0)
(0.341902 -0.114227 0)
(0.376097 -0.13929 0)
(0.413153 -0.163402 0)
(0.45325 -0.186718 0)
(0.496196 -0.209146 0)
(0.541252 -0.230012 0)
(0.587472 -0.248593 0)
(0.633724 -0.264076 0)
(0.678728 -0.275591 0)
(0.721427 -0.282595 0)
(0.760916 -0.284789 0)
(0.796571 -0.282065 0)
(0.828174 -0.274788 0)
(0.855651 -0.263507 0)
(0.879314 -0.249035 0)
(0.899403 -0.232243 0)
(0.916492 -0.214021 0)
(0.93113 -0.195112 0)
(0.943824 -0.17605 0)
(0.955318 -0.157288 0)
(0.965985 -0.138722 0)
(0.976341 -0.120432 0)
(0.986625 -0.101866 0)
(0.996872 -0.0827984 0)
(1.00711 -0.0628732 0)
(1.01694 -0.0414578 0)
(1.02617 -0.0188127 0)
(1.03409 0.00564733 0)
(1.04018 0.0313329 0)
(1.04408 0.0576524 0)
(1.04531 0.0842831 0)
(1.04335 0.110698 0)
(1.03785 0.136014 0)
(1.02838 0.159544 0)
(1.01446 0.180768 0)
(0.995907 0.199366 0)
(0.97309 0.214881 0)
(0.946024 0.226697 0)
(0.914601 0.233808 0)
(0.87792 0.235692 0)
(0.836723 0.232357 0)
(0.790736 0.223792 0)
(0.741599 0.209575 0)
(0.688792 0.190845 0)
(0.638107 0.168426 0)
(0.588414 0.145102 0)
(0.548127 0.120379 0)
(0.510666 0.0978587 0)
(0.486885 0.0731879 0)
(0.463095 0.0525849 0)
(0.454208 0.0269769 0)
(0.441625 0.0072169 0)
(0.443276 -0.0205289 0)
(0.440751 -0.0395072 0)
(0.448971 -0.0662217 0)
(0.455622 -0.082466 0)
(0.46529 -0.103842 0)
(0.479958 -0.116342 0)
(0.486485 -0.128459 0)
(0.506969 -0.137586 0)
(-0.0105563 0.0247901 0)
(-0.0487252 0.023935 0)
(-0.0951967 0.0171376 0)
(-0.129879 0.013644 0)
(-0.156782 0.0146929 0)
(-0.174387 0.0189286 0)
(-0.185003 0.024577 0)
(-0.189522 0.029617 0)
(-0.189901 0.0325231 0)
(-0.187138 0.0321056 0)
(-0.182291 0.0281202 0)
(-0.175591 0.0213628 0)
(-0.1669 0.013598 0)
(-0.15547 0.00722016 0)
(-0.139818 0.00452297 0)
(-0.118285 0.00790945 0)
(-0.0898621 0.0193752 0)
(-0.053704 0.0360792 0)
(-0.0101037 0.054966 0)
(0.0396013 0.0713868 0)
(0.0934432 0.0817025 0)
(0.149417 0.0811874 0)
(0.203958 0.0704204 0)
(0.255188 0.050866 0)
(0.302107 0.0252945 0)
(0.344201 -0.0033294 0)
(0.383348 -0.0331836 0)
(0.419713 -0.062906 0)
(0.454167 -0.0921519 0)
(0.488616 -0.120983 0)
(0.52454 -0.149042 0)
(0.562844 -0.176684 0)
(0.603558 -0.203656 0)
(0.646066 -0.229376 0)
(0.689468 -0.253507 0)
(0.73257 -0.275001 0)
(0.773931 -0.293018 0)
(0.812312 -0.306768 0)
(0.846585 -0.315473 0)
(0.876007 -0.318786 0)
(0.900278 -0.316665 0)
(0.919439 -0.309306 0)
(0.933924 -0.297345 0)
(0.944304 -0.2817 0)
(0.951424 -0.26332 0)
(0.955991 -0.243373 0)
(0.958857 -0.222713 0)
(0.960794 -0.202164 0)
(0.962419 -0.182211 0)
(0.964517 -0.163096 0)
(0.967593 -0.144844 0)
(0.972075 -0.127014 0)
(0.978263 -0.109189 0)
(0.985874 -0.090733 0)
(0.995015 -0.0711687 0)
(1.00498 -0.0498325 0)
(1.01535 -0.0266645 0)
(1.02534 -0.0015292 0)
(1.0339 0.0254745 0)
(1.04074 0.0539496 0)
(1.04551 0.0832581 0)
(1.04758 0.112601 0)
(1.04677 0.141004 0)
(1.04286 0.167732 0)
(1.03594 0.192305 0)
(1.02576 0.214453 0)
(1.01276 0.233666 0)
(0.996376 0.249342 0)
(0.977073 0.260601 0)
(0.953615 0.267168 0)
(0.927412 0.268471 0)
(0.896581 0.264404 0)
(0.864077 0.253979 0)
(0.826225 0.238332 0)
(0.789511 0.216422 0)
(0.748184 0.191711 0)
(0.713684 0.16218 0)
(0.676102 0.133898 0)
(0.651105 0.101632 0)
(0.622891 0.0739958 0)
(0.610382 0.0411176 0)
(0.592181 0.0154965 0)
(0.589634 -0.0164323 0)
(0.580903 -0.0397416 0)
(0.585662 -0.0689911 0)
(0.583822 -0.0882663 0)
(0.590681 -0.110753 0)
(0.593058 -0.124258 0)
(0.598152 -0.136873 0)
(0.602677 -0.144134 0)
(-0.0194406 0.0240291 0)
(-0.0504666 0.0447298 0)
(-0.0715795 0.0434883 0)
(-0.0902672 0.0373252 0)
(-0.103041 0.0316533 0)
(-0.109875 0.0281307 0)
(-0.111131 0.0269427 0)
(-0.106742 0.0266411 0)
(-0.0980674 0.0258641 0)
(-0.0858428 0.0232063 0)
(-0.0714203 0.0178253 0)
(-0.0557813 0.00984702 0)
(-0.0394224 2.38386e-05 0)
(-0.0231037 -0.00979785 0)
(-0.00524055 -0.0179532 0)
(0.0164697 -0.0218675 0)
(0.0445004 -0.0196652 0)
(0.0795805 -0.0120728 0)
(0.122556 -0.00116082 0)
(0.172397 0.00931691 0)
(0.227816 0.0166348 0)
(0.286669 0.0173038 0)
(0.345235 0.0102766 0)
(0.401175 -0.00384147 0)
(0.45353 -0.0240325 0)
(0.502009 -0.0479582 0)
(0.547395 -0.0747269 0)
(0.590263 -0.103265 0)
(0.631728 -0.132348 0)
(0.67285 -0.161892 0)
(0.714234 -0.19091 0)
(0.755866 -0.219355 0)
(0.79712 -0.246577 0)
(0.83693 -0.271615 0)
(0.873797 -0.293998 0)
(0.906662 -0.312488 0)
(0.934166 -0.326412 0)
(0.955676 -0.335141 0)
(0.970852 -0.338147 0)
(0.979866 -0.335587 0)
(0.983447 -0.327678 0)
(0.982531 -0.315052 0)
(0.978297 -0.298656 0)
(0.971791 -0.27951 0)
(0.964191 -0.258736 0)
(0.956212 -0.237427 0)
(0.948695 -0.216444 0)
(0.942207 -0.196468 0)
(0.937226 -0.177903 0)
(0.934285 -0.16072 0)
(0.933901 -0.144801 0)
(0.936392 -0.129482 0)
(0.941824 -0.114051 0)
(0.949839 -0.0977785 0)
(0.960253 -0.0795865 0)
(0.972056 -0.0591607 0)
(0.98448 -0.0359564 0)
(0.996645 -0.01009 0)
(1.00776 0.0179973 0)
(1.01705 0.0483696 0)
(1.02401 0.0800686 0)
(1.02789 0.112016 0)
(1.02898 0.143114 0)
(1.02732 0.172494 0)
(1.02371 0.199472 0)
(1.01785 0.22372 0)
(1.0108 0.244675 0)
(1.00165 0.262107 0)
(0.991852 0.275358 0)
(0.97924 0.284625 0)
(0.966217 0.288846 0)
(0.949022 0.288425 0)
(0.932117 0.281366 0)
(0.909373 0.2694 0)
(0.888535 0.249789 0)
(0.860718 0.226783 0)
(0.838217 0.19659 0)
(0.808853 0.166501 0)
(0.789372 0.130253 0)
(0.763086 0.0980293 0)
(0.750461 0.0601713 0)
(0.73007 0.0290823 0)
(0.724576 -0.00678437 0)
(0.709396 -0.0337129 0)
(0.709566 -0.0649976 0)
(0.698384 -0.0865656 0)
(0.701025 -0.109893 0)
(0.690851 -0.123801 0)
(0.693273 -0.136562 0)
(0.682581 -0.142121 0)
(-0.014463 0.118298 0)
(-0.00733243 0.0863871 0)
(0.00159897 0.0699374 0)
(0.0125408 0.0538771 0)
(0.0259032 0.0404921 0)
(0.0416234 0.0306784 0)
(0.059639 0.0235546 0)
(0.0813046 0.0178228 0)
(0.105018 0.0123578 0)
(0.131114 0.0063078 0)
(0.159082 -0.000816365 0)
(0.187333 -0.00878526 0)
(0.216364 -0.0180187 0)
(0.243886 -0.0271319 0)
(0.271249 -0.0356689 0)
(0.29765 -0.0417802 0)
(0.324632 -0.0446842 0)
(0.353581 -0.0442068 0)
(0.386209 -0.0418074 0)
(0.424348 -0.0394401 0)
(0.467094 -0.038301 0)
(0.514584 -0.0407732 0)
(0.564314 -0.0482132 0)
(0.614348 -0.0604855 0)
(0.663759 -0.0778738 0)
(0.711043 -0.0989472 0)
(0.75668 -0.12308 0)
(0.799985 -0.149328 0)
(0.841412 -0.176346 0)
(0.88038 -0.20398 0)
(0.916918 -0.230873 0)
(0.950216 -0.256731 0)
(0.979236 -0.280547 0)
(1.00323 -0.301344 0)
(1.02073 -0.318609 0)
(1.0318 -0.331135 0)
(1.03573 -0.338702 0)
(1.03321 -0.340866 0)
(1.02505 -0.337604 0)
(1.01244 -0.32951 0)
(0.997213 -0.317058 0)
(0.980744 -0.301232 0)
(0.964491 -0.283073 0)
(0.949231 -0.263453 0)
(0.935636 -0.243341 0)
(0.923725 -0.223594 0)
(0.913642 -0.204766 0)
(0.905508 -0.187531 0)
(0.899414 -0.172208 0)
(0.895853 -0.158678 0)
(0.895218 -0.146412 0)
(0.89785 -0.134835 0)
(0.903877 -0.123023 0)
(0.912752 -0.109558 0)
(0.924372 -0.0935195 0)
(0.937302 -0.0740967 0)
(0.951199 -0.05078 0)
(0.964527 -0.0236842 0)
(0.97691 0.00698489 0)
(0.987845 0.0398671 0)
(0.996273 0.0740842 0)
(1.00123 0.108729 0)
(1.00323 0.142699 0)
(1.00211 0.17492 0)
(0.999196 0.204347 0)
(0.993972 0.230545 0)
(0.988221 0.252734 0)
(0.980925 0.271012 0)
(0.974824 0.28454 0)
(0.96738 0.294175 0)
(0.962001 0.298603 0)
(0.953925 0.299299 0)
(0.948291 0.293499 0)
(0.937888 0.28384 0)
(0.930488 0.266263 0)
(0.916186 0.245665 0)
(0.906298 0.21675 0)
(0.888189 0.187362 0)
(0.877365 0.150564 0)
(0.857578 0.116765 0)
(0.848445 0.0770964 0)
(0.829086 0.0435252 0)
(0.823267 0.00528459 0)
(0.804629 -0.0238932 0)
(0.801291 -0.0560577 0)
(0.782713 -0.0787116 0)
(0.781332 -0.102174 0)
(0.761154 -0.116075 0)
(0.760662 -0.128503 0)
(0.738038 -0.133004 0)
(0.0746392 0.00735417 0)
(0.0975493 0.00975955 0)
(0.168121 0.00937018 0)
(0.218503 0.00460063 0)
(0.261855 -0.00179405 0)
(0.301781 -0.00818688 0)
(0.33874 -0.0141408 0)
(0.374466 -0.0198195 0)
(0.408832 -0.0255191 0)
(0.442894 -0.0317582 0)
(0.477201 -0.038889 0)
(0.510445 -0.0466069 0)
(0.543846 -0.0548801 0)
(0.575023 -0.0627056 0)
(0.605139 -0.0696238 0)
(0.633771 -0.0748096 0)
(0.6613 -0.0774067 0)
(0.689316 -0.0781392 0)
(0.717392 -0.0773146 0)
(0.748073 -0.0769584 0)
(0.780253 -0.0779823 0)
(0.814869 -0.0817355 0)
(0.85082 -0.0895215 0)
(0.887026 -0.100895 0)
(0.922829 -0.11663 0)
(0.956636 -0.135424 0)
(0.988559 -0.157019 0)
(1.01691 -0.180416 0)
(1.04206 -0.204494 0)
(1.06239 -0.22883 0)
(1.07819 -0.251842 0)
(1.08836 -0.273335 0)
(1.09248 -0.291985 0)
(1.09071 -0.307217 0)
(1.08224 -0.318563 0)
(1.0688 -0.325129 0)
(1.05027 -0.327383 0)
(1.02893 -0.324946 0)
(1.00617 -0.318379 0)
(0.983547 -0.308467 0)
(0.962949 -0.295556 0)
(0.944789 -0.280833 0)
(0.929643 -0.264726 0)
(0.916963 -0.247773 0)
(0.906126 -0.230412 0)
(0.896239 -0.213242 0)
(0.886846 -0.196783 0)
(0.877694 -0.181682 0)
(0.869152 -0.168818 0)
(0.862261 -0.158079 0)
(0.85764 -0.148835 0)
(0.855582 -0.140496 0)
(0.857147 -0.132023 0)
(0.861676 -0.121469 0)
(0.869496 -0.107509 0)
(0.879786 -0.0893948 0)
(0.892027 -0.066304 0)
(0.905574 -0.0389015 0)
(0.918755 -0.00672627 0)
(0.930588 0.028447 0)
(0.941308 0.0649235 0)
(0.949484 0.101908 0)
(0.955223 0.138266 0)
(0.957865 0.17291 0)
(0.958728 0.204617 0)
(0.956918 0.232913 0)
(0.954143 0.256716 0)
(0.949062 0.276282 0)
(0.94472 0.290298 0)
(0.939031 0.299976 0)
(0.935982 0.303599 0)
(0.931486 0.303624 0)
(0.930653 0.29713 0)
(0.927061 0.287729 0)
(0.927425 0.270818 0)
(0.92263 0.251711 0)
(0.921979 0.224416 0)
(0.913681 0.196619 0)
(0.910971 0.161255 0)
(0.898655 0.128265 0)
(0.894547 0.0891766 0)
(0.878528 0.0557434 0)
(0.874375 0.0177648 0)
(0.855441 -0.0119 0)
(0.850929 -0.0438113 0)
(0.828352 -0.0663393 0)
(0.824595 -0.0892767 0)
(0.798589 -0.102934 0)
(0.796143 -0.114766 0)
(0.766526 -0.11899 0)
(0.778482 -0.0101314 0)
(0.781109 -0.020789 0)
(0.78377 -0.0273937 0)
(0.789153 -0.0326149 0)
(0.796532 -0.0373475 0)
(0.80647 -0.0422088 0)
(0.818144 -0.0470301 0)
(0.831227 -0.0518642 0)
(0.845844 -0.0570144 0)
(0.861032 -0.0622843 0)
(0.877617 -0.0683469 0)
(0.8939 -0.0745615 0)
(0.910575 -0.0811774 0)
(0.92622 -0.0874825 0)
(0.941055 -0.0928751 0)
(0.955078 -0.0972488 0)
(0.968246 -0.0997391 0)
(0.981788 -0.101326 0)
(0.995313 -0.101763 0)
(1.01055 -0.10267 0)
(1.02662 -0.104645 0)
(1.0444 -0.108719 0)
(1.06237 -0.115977 0)
(1.08017 -0.126112 0)
(1.09644 -0.139968 0)
(1.11023 -0.156194 0)
(1.12119 -0.175008 0)
(1.12778 -0.194945 0)
(1.13071 -0.2154 0)
(1.12822 -0.235543 0)
(1.12161 -0.253977 0)
(1.10991 -0.270778 0)
(1.09399 -0.284362 0)
(1.07478 -0.29502 0)
(1.05228 -0.302018 0)
(1.02944 -0.305328 0)
(1.00581 -0.305664 0)
(0.984438 -0.30268 0)
(0.965299 -0.297283 0)
(0.948852 -0.28972 0)
(0.935639 -0.279771 0)
(0.923797 -0.268385 0)
(0.913349 -0.254842 0)
(0.902442 -0.239491 0)
(0.890263 -0.222701 0)
(0.875723 -0.204732 0)
(0.859015 -0.187486 0)
(0.840028 -0.171497 0)
(0.819525 -0.158005 0)
(0.800094 -0.147993 0)
(0.782311 -0.140573 0)
(0.76645 -0.134446 0)
(0.754774 -0.128408 0)
(0.748689 -0.120879 0)
(0.7493 -0.109817 0)
(0.756302 -0.0943316 0)
(0.768538 -0.0735742 0)
(0.784215 -0.047318 0)
(0.801645 -0.0163349 0)
(0.817651 0.0186329 0)
(0.832531 0.0565108 0)
(0.845707 0.0952553 0)
(0.857119 0.133073 0)
(0.866282 0.168949 0)
(0.874413 0.201771 0)
(0.880582 0.231189 0)
(0.885839 0.255998 0)
(0.888626 0.276554 0)
(0.89098 0.291245 0)
(0.891087 0.301332 0)
(0.892187 0.304672 0)
(0.891589 0.304001 0)
(0.893679 0.296516 0)
(0.894024 0.286307 0)
(0.897995 0.269079 0)
(0.898565 0.250242 0)
(0.902929 0.224055 0)
(0.901154 0.19764 0)
(0.903884 0.164316 0)
(0.897629 0.133111 0)
(0.89787 0.09611 0)
(0.885899 0.0642609 0)
(0.884039 0.0282374 0)
(0.866618 -0.000337761 0)
(0.862811 -0.0309732 0)
(0.839432 -0.0523556 0)
(0.835264 -0.0742783 0)
(0.807213 -0.0872945 0)
(0.804205 -0.0984527 0)
(0.771947 -0.102759 0)
(1.06034 0.00649162 0)
(1.0647 -0.00242669 0)
(1.0668 -0.0103139 0)
(1.06822 -0.0176411 0)
(1.06954 -0.024557 0)
(1.07168 -0.0314384 0)
(1.07452 -0.0383445 0)
(1.07782 -0.0450808 0)
(1.08157 -0.052051 0)
(1.08528 -0.0588471 0)
(1.08923 -0.0660249 0)
(1.09259 -0.0730265 0)
(1.09573 -0.0800307 0)
(1.09781 -0.0865508 0)
(1.09936 -0.0921539 0)
(1.10004 -0.0968567 0)
(1.10054 -0.100045 0)
(1.10121 -0.102611 0)
(1.10234 -0.104238 0)
(1.10479 -0.106392 0)
(1.10787 -0.109307 0)
(1.11234 -0.114162 0)
(1.11637 -0.121514 0)
(1.12036 -0.131323 0)
(1.12238 -0.144143 0)
(1.12251 -0.158648 0)
(1.11991 -0.175328 0)
(1.11399 -0.192325 0)
(1.10552 -0.209758 0)
(1.09331 -0.226364 0)
(1.07943 -0.241432 0)
(1.06292 -0.255156 0)
(1.04574 -0.265924 0)
(1.02841 -0.275033 0)
(1.01078 -0.280963 0)
(0.995261 -0.284859 0)
(0.97953 -0.286486 0)
(0.966272 -0.285628 0)
(0.953051 -0.283047 0)
(0.939677 -0.277732 0)
(0.926185 -0.269611 0)
(0.909285 -0.258539 0)
(0.891041 -0.243772 0)
(0.868571 -0.225589 0)
(0.842683 -0.205394 0)
(0.812284 -0.182714 0)
(0.777817 -0.161344 0)
(0.741001 -0.143457 0)
(0.700758 -0.12825 0)
(0.661143 -0.118025 0)
(0.623717 -0.113067 0)
(0.589865 -0.109779 0)
(0.566795 -0.107799 0)
(0.560173 -0.107877 0)
(0.569752 -0.107115 0)
(0.589508 -0.101275 0)
(0.614127 -0.0871623 0)
(0.639652 -0.0640227 0)
(0.663474 -0.0335726 0)
(0.684453 0.00259745 0)
(0.703355 0.0424949 0)
(0.718667 0.0832886 0)
(0.731705 0.122889 0)
(0.743468 0.160111 0)
(0.755385 0.193903 0)
(0.767174 0.224032 0)
(0.779311 0.249513 0)
(0.79059 0.270815 0)
(0.801586 0.28634 0)
(0.810801 0.297182 0)
(0.819662 0.301127 0)
(0.826539 0.300589 0)
(0.834131 0.29301 0)
(0.839973 0.282263 0)
(0.847713 0.264838 0)
(0.852887 0.245772 0)
(0.860584 0.220342 0)
(0.863553 0.1948 0)
(0.869671 0.163409 0)
(0.868167 0.133953 0)
(0.871422 0.0995614 0)
(0.863516 0.0697555 0)
(0.863707 0.0363588 0)
(0.849108 0.00982333 0)
(0.84683 -0.0188473 0)
(0.824875 -0.038568 0)
(0.821476 -0.0591879 0)
(0.793835 -0.0711156 0)
(0.791242 -0.0816653 0)
(0.759027 -0.0859837 0)
(1.08408 -0.00595857 0)
(1.09082 -0.0144375 0)
(1.09594 -0.0228822 0)
(1.09959 -0.0307056 0)
(1.10201 -0.0377352 0)
(1.10392 -0.0442851 0)
(1.10536 -0.0506803 0)
(1.10664 -0.0569117 0)
(1.10755 -0.063232 0)
(1.10811 -0.0693779 0)
(1.10824 -0.0756128 0)
(1.10765 -0.0815828 0)
(1.10659 -0.0873733 0)
(1.10457 -0.0926424 0)
(1.10226 -0.0972177 0)
(1.09922 -0.101049 0)
(1.09637 -0.103901 0)
(1.09359 -0.106342 0)
(1.09146 -0.108281 0)
(1.09021 -0.110834 0)
(1.0895 -0.114109 0)
(1.08984 -0.119168 0)
(1.08969 -0.126136 0)
(1.08984 -0.135225 0)
(1.08829 -0.146527 0)
(1.08603 -0.15919 0)
(1.0817 -0.173502 0)
(1.07581 -0.187963 0)
(1.06846 -0.202891 0)
(1.05909 -0.216997 0)
(1.04934 -0.230035 0)
(1.03772 -0.241981 0)
(1.02622 -0.251457 0)
(1.01357 -0.260144 0)
(0.999746 -0.26587 0)
(0.985487 -0.270443 0)
(0.967753 -0.272258 0)
(0.94937 -0.27122 0)
(0.926617 -0.268132 0)
(0.900895 -0.260702 0)
(0.872443 -0.250624 0)
(0.837603 -0.235329 0)
(0.801877 -0.21595 0)
(0.759704 -0.192466 0)
(0.714989 -0.166837 0)
(0.66741 -0.139984 0)
(0.611088 -0.112756 0)
(0.555602 -0.0941698 0)
(0.497857 -0.0817283 0)
(0.434419 -0.0683948 0)
(0.383463 -0.063881 0)
(0.363712 -0.0777914 0)
(0.372796 -0.103631 0)
(0.398454 -0.12862 0)
(0.430728 -0.143027 0)
(0.462931 -0.142507 0)
(0.49188 -0.127351 0)
(0.517342 -0.100525 0)
(0.539486 -0.0645601 0)
(0.557204 -0.0223105 0)
(0.572891 0.0218633 0)
(0.586411 0.0651308 0)
(0.598586 0.106457 0)
(0.610462 0.144698 0)
(0.623167 0.178922 0)
(0.637126 0.209 0)
(0.652536 0.234451 0)
(0.669057 0.255839 0)
(0.686233 0.27195 0)
(0.703239 0.283572 0)
(0.719762 0.288718 0)