/*--------------------------------*- C++ -*----------------------------------*\
| =========                 |                                                 |
| \\      /  F ield         | OpenFOAM: The Open Source CFD Toolbox           |
|  \\    /   O peration     | Version:  2306                                  |
|   \\  /    A nd           | Website:  www.openfoam.com                      |
|    \\/     M anipulation  |                                                 |
\*---------------------------------------------------------------------------*/
FoamFile
{
    version     2.0;
    format      ascii;
    arch        "LSB;label=32;scalar=64";
    class       volVectorField;
    location    "0.29";
    object      U;
}
// * * * * * * * * * * * * * * * * * * * * * * * * * * * * * * * * * * * * * //

dimensions      [0 1 -1 0 0 0 0];

internalField   nonuniform List<vector> 
475
(
(0.814401 0.100525 0)
(0.775462 0.0919101 0)
(0.700509 0.0435591 0)
(0.669099 -0.00179334 0)
(0.66911 -0.0671874 0)
(1.01651 0.130052 0)
(1.13259 0.125204 0)
(1.20454 0.0589866 0)
(1.24616 -0.0105025 0)
(1.26541 -0.104074 0)
(1.0341 -0.0082895 0)
(1.18114 -0.0230597 0)
(1.29871 -0.0416387 0)
(1.36208 -0.0693123 0)
(1.3764 -0.116573 0)
(1.01508 -0.141435 0)
(1.11957 -0.157286 0)
(1.16705 -0.118721 0)
(1.16578 -0.095043 0)
(1.1326 -0.0924779 0)
(0.81272 -0.103758 0)
(0.760478 -0.101658 0)
(0.656278 -0.063727 0)
(0.571947 -0.0402629 0)
(0.51239 -0.0299043 0)
(-0.00923163 0.00815978 0)
(-0.0231924 0.00602148 0)
(-0.0238658 -0.000462656 0)
(-0.00949256 -0.00599184 0)
(0.0148663 -0.00903307 0)
(0.043259 -0.00992187 0)
(0.0710498 -0.00921942 0)
(0.095563 -0.00765195 0)
(0.115485 -0.00580248 0)
(0.130573 -0.00404228 0)
(0.141245 -0.00256197 0)
(0.148241 -0.00142426 0)
(0.152387 -0.000614669 0)
(0.154457 -8.11582e-05 0)
(0.155106 0.000239591 0)
(0.154849 0.000407334 0)
(0.154069 0.000472496 0)
(0.153033 0.000472734 0)
(0.151924 0.000435156 0)
(0.150854 0.000378483 0)
(0.149889 0.000314833 0)
(0.149062 0.000251611 0)
(0.148384 0.000193081 0)
(0.147852 0.000141488 0)
(0.147452 9.78087e-05 0)
(0.147168 6.22296e-05 0)
(0.146981 3.44355e-05 0)
(0.146871 1.37802e-05 0)
(0.146819 -6.03018e-07 0)
(0.146809 -9.71278e-06 0)
(0.146826 -1.46177e-05 0)
(0.146858 -1.64013e-05 0)
(0.146897 -1.59955e-05 0)
(0.146936 -1.423e-05 0)
(0.146971 -1.17825e-05 0)
(0.147001 -9.15252e-06 0)
(0.147024 -6.67312e-06 0)
(0.147042 -4.53888e-06 0)
(0.147054 -2.83584e-06 0)
(0.147061 -1.5719e-06 0)
(0.147066 -7.06313e-07 0)
(0.147068 -1.75161e-07 0)
(0.147069 8.91603e-08 0)
(0.147069 1.47691e-07 0)
(0.147069 7.57625e-08 0)
(-0.0128009 0.0267838 0)
(-0.0235518 0.011739 0)
(-0.00385773 -0.0154948 0)
(0.038793 -0.0369292 0)
(0.0944259 -0.0484156 0)
(0.15391 -0.0510903 0)
(0.210646 -0.0474736 0)
(0.260632 -0.0403443 0)
(0.301964 -0.0319153 0)
(0.334288 -0.02366 0)
(0.358239 -0.0164097 0)
(0.374989 -0.0105189 0)
(0.38591 -0.00602852 0)
(0.392355 -0.00280173 0)
(0.395536 -0.000621801 0)
(0.396466 0.000744804 0)
(0.395939 0.00151482 0)
(0.394554 0.00186509 0)
(0.392745 0.00193567 0)
(0.390808 0.00183203 0)
(0.388936 0.00162971 0)
(0.387244 0.00138068 0)
(0.385794 0.00111963 0)
(0.384606 0.000868844 0)
(0.383676 0.000641935 0)
(0.382985 0.000446436 0)
(0.3825 0.000285561 0)
(0.382187 0.000159406 0)
(0.382009 6.58138e-05 0)
(0.381932 1.06177e-06 0)
(0.381924 -3.95619e-05 0)
(0.38196 -6.12432e-05 0)
(0.38202 -6.87976e-05 0)
(0.382088 -6.67583e-05 0)
(0.382155 -5.89755e-05 0)
(0.382215 -4.84506e-05 0)
(0.382264 -3.7336e-05 0)
(0.382301 -2.7025e-05 0)
(0.382329 -1.82871e-05 0)
(0.382347 -1.14222e-05 0)
(0.382359 -6.41264e-06 0)
(0.382366 -3.05708e-06 0)
(0.382369 -1.07504e-06 0)
(0.382371 -1.74901e-07 0)
(0.382371 -3.59935e-08 0)
(-0.00603381 0.0407515 0)
(0.00773393 -0.00409499 0)
(0.0676387 -0.0619294 0)
(0.142107 -0.101116 0)
(0.219802 -0.119193 0)
(0.294032 -0.120319 0)
(0.36048 -0.110051 0)
(0.416985 -0.0935985 0)
(0.462982 -0.0749693 0)
(0.498926 -0.0568393 0)
(0.525866 -0.0407552 0)
(0.545144 -0.0274208 0)
(0.558184 -0.0169691 0)
(0.566355 -0.00918821 0)
(0.570876 -0.00369151 0)
(0.572789 -3.42231e-05 0)
(0.57293 0.00221565 0)
(0.571948 0.00343299 0)
(0.570334 0.0039267 0)
(0.568442 0.00393957 0)
(0.566512 0.00365369 0)
(0.5647 0.00320078 0)
(0.563096 0.00267338 0)
(0.561746 0.00213461 0)
(0.56066 0.00162587 0)
(0.559829 0.00117269 0)
(0.559227 0.000788857 0)
(0.558819 0.000479397 0)
(0.558569 0.000242819 0)
(0.55844 7.29754e-05 0)
(0.558398 -3.93112e-05 0)
(0.558413 -0.000105388 0)
(0.558462 -0.000135784 0)
(0.558526 -0.000141012 0)
(0.558594 -0.000130219 0)
(0.558657 -0.00011074 0)
(0.558711 -8.80204e-05 0)
(0.558753 -6.57477e-05 0)
(0.558785 -4.6118e-05 0)
(0.558807 -3.01727e-05 0)
(0.558822 -1.81412e-05 0)
(0.558831 -9.74872e-06 0)
(0.558836 -4.4629e-06 0)
(0.558839 -1.66472e-06 0)
(0.55884 -7.104e-07 0)
(0.035773 0.0428902 0)
(0.0980974 -0.0629356 0)
(0.207667 -0.148193 0)
(0.309791 -0.19123 0)
(0.395811 -0.202951 0)
(0.466976 -0.193785 0)
(0.524631 -0.171992 0)
(0.570245 -0.144097 0)
(0.60554 -0.114846 0)
(0.632234 -0.0873129 0)
(0.65189 -0.0632139 0)
(0.665884 -0.0432732 0)
(0.675408 -0.0275502 0)
(0.681483 -0.0157021 0)
(0.684966 -0.00718028 0)
(0.686572 -0.00136725 0)
(0.686869 0.00233589 0)
(0.686306 0.00446213 0)
(0.685231 0.00545839 0)
(0.683904 0.00568105 0)
(0.682507 0.00540341 0)
(0.681163 0.0048285 0)
(0.679951 0.004103 0)
(0.678911 0.00332998 0)
(0.67806 0.00257951 0)
(0.677397 0.00189677 0)
(0.676905 0.00130814 0)
(0.676564 0.000825636 0)
(0.676346 0.000450351 0)
(0.676224 0.0001754 0)
(0.676173 -1.15353e-05 0)
(0.67617 -0.000125609 0)
(0.676198 -0.000183379 0)
(0.676241 -0.000200512 0)
(0.676289 -0.000190921 0)
(0.676335 -0.000166019 0)
(0.676375 -0.000134462 0)
(0.676408 -0.000102257 0)
(0.676433 -7.31208e-05 0)
(0.676451 -4.89568e-05 0)
(0.676463 -3.03659e-05 0)
(0.67647 -1.71116e-05 0)
(0.676475 -8.50143e-06 0)
(0.676477 -3.65966e-06 0)
(0.676478 -1.69034e-06 0)
(0.195913 -0.120148 0)
(0.306749 -0.221992 0)
(0.45114 -0.275606 0)
(0.553126 -0.290648 0)
(0.618688 -0.278777 0)
(0.661778 -0.250705 0)
(0.690328 -0.214313 0)
(0.708949 -0.175308 0)
(0.72089 -0.137647 0)
(0.728479 -0.103764 0)
(0.73328 -0.0748695 0)
(0.736286 -0.0513047 0)
(0.738114 -0.0328461 0)
(0.739145 -0.0189475 0)
(0.739621 -0.00891289 0)
(0.739708 -0.00201389 0)
(0.739521 0.00243524 0)
(0.739148 0.00504104 0)
(0.738665 0.00631436 0)
(0.738134 0.0066629 0)
(0.737598 0.0064023 0)
(0.73709 0.00577045 0)
(0.736634 0.00494192 0)
(0.736242 0.00404148 0)
(0.73592 0.0031556 0)
(0.735666 0.00234135 0)
(0.735477 0.00163317 0)
(0.735344 0.00104789 0)
(0.735257 0.000588834 0)
(0.735207 0.000249241 0)
(0.735185 1.54434e-05 0)
(0.735181 -0.000129622 0)
(0.735189 -0.000205778 0)
(0.735204 -0.000231846 0)
(0.735221 -0.000224485 0)
(0.735238 -0.000197505 0)
(0.735252 -0.000161501 0)
(0.735265 -0.000123913 0)
(0.735274 -8.94245e-05 0)
(0.735281 -6.05131e-05 0)
(0.735286 -3.80536e-05 0)
(0.735288 -2.18736e-05 0)
(0.73529 -1.12159e-05 0)
(0.735291 -5.07277e-06 0)
(0.735292 -2.41062e-06 0)
(0.831514 -0.300816 0)
(0.829629 -0.351468 0)
(0.842498 -0.357478 0)
(0.853686 -0.340762 0)
(0.851004 -0.307251 0)
(0.838221 -0.264445 0)
(0.820794 -0.218741 0)
(0.802261 -0.174491 0)
(0.784824 -0.134366 0)
(0.769774 -0.0997495 0)
(0.757648 -0.071076 0)
(0.74844 -0.0481597 0)
(0.741831 -0.0304557 0)
(0.737364 -0.0172473 0)
(0.734558 -0.0077681 0)
(0.732974 -0.00127768 0)
(0.732243 0.00288389 0)
(0.732073 0.00530334 0)
(0.732251 0.00646205 0)
(0.732619 0.00674314 0)
(0.73307 0.00644464 0)
(0.733533 0.00579242 0)
(0.733967 0.00495334 0)
(0.734348 0.00404757 0)
(0.734664 0.00315896 0)
(0.734914 0.00234327 0)
(0.735101 0.00163426 0)
(0.735233 0.00104848 0)
(0.735319 0.000589111 0)
(0.735369 0.000249332 0)
(0.735391 1.54325e-05 0)
(0.735395 -0.000129676 0)
(0.735387 -0.00020584 0)
(0.735372 -0.000231897 0)
(0.735355 -0.00022452 0)
(0.735339 -0.000197528 0)
(0.735324 -0.000161514 0)
(0.735312 -0.00012392 0)
(0.735302 -8.94276e-05 0)
(0.735295 -6.05142e-05 0)
(0.735291 -3.80539e-05 0)
(0.735288 -2.18739e-05 0)
(0.735286 -1.12166e-05 0)
(0.735285 -5.07407e-06 0)
(0.735285 -2.41226e-06 0)
(1.27141 -0.249431 0)
(1.2048 -0.309881 0)
(1.1261 -0.317506 0)
(1.05298 -0.297862 0)
(0.982698 -0.262852 0)
(0.916432 -0.220938 0)
(0.857355 -0.178434 0)
(0.807245 -0.139151 0)
(0.766458 -0.104932 0)
(0.734538 -0.0763724 0)
(0.710537 -0.0533382 0)
(0.693244 -0.0353162 0)
(0.681384 -0.0216296 0)
(0.67375 -0.0115654 0)
(0.669281 -0.00444078 0)
(0.66708 0.000361293 0)
(0.666441 0.00337593 0)
(0.666821 0.00506202 0)
(0.667801 0.00579109 0)
(0.669081 0.00585914 0)
(0.670455 0.00549619 0)
(0.671787 0.00487628 0)
(0.672994 0.0041279 0)
(0.67403 0.00334343 0)
(0.674879 0.00258711 0)
(0.675541 0.00190121 0)
(0.676032 0.0013107 0)
(0.676373 0.000827017 0)
(0.676591 0.000450986 0)
(0.676712 0.000175589 0)
(0.676763 -1.15771e-05 0)
(0.676766 -0.00012574 0)
(0.676739 -0.000183526 0)
(0.676696 -0.000200631 0)
(0.676648 -0.000191005 0)
(0.676602 -0.000166072 0)
(0.676561 -0.000134492 0)
(0.676529 -0.000102272 0)
(0.676504 -7.31268e-05 0)
(0.676486 -4.89586e-05 0)
(0.676474 -3.03663e-05 0)
(0.676466 -1.71122e-05 0)
(0.676462 -8.5032e-06 0)
(0.67646 -3.663e-06 0)
(0.676458 -1.69458e-06 0)
(1.34033 -0.185004 0)
(1.24918 -0.2195 0)
(1.13627 -0.218912 0)
(1.02493 -0.19901 0)
(0.922399 -0.170363 0)
(0.832049 -0.13915 0)
(0.756137 -0.109336 0)
(0.695002 -0.083062 0)
(0.647496 -0.0610663 0)
(0.611812 -0.0432946 0)
(0.585966 -0.0293344 0)
(0.568027 -0.0186488 0)
(0.556243 -0.0106899 0)
(0.549104 -0.00494935 0)
(0.545356 -0.000975822 0)
(0.543984 0.00162305 0)
(0.544203 0.00318327 0)
(0.54541 0.00397365 0)
(0.547158 0.00421666 0)
(0.549126 0.00408986 0)
(0.551097 0.00373002 0)
(0.552931 0.00323971 0)
(0.554545 0.00269399 0)
(0.5559 0.00214623 0)
(0.556988 0.00163283 0)
(0.557821 0.00117695 0)
(0.558424 0.000791378 0)
(0.558832 0.000480747 0)
(0.559082 0.000243407 0)
(0.559211 7.31095e-05 0)
(0.559254 -3.93965e-05 0)
(0.559239 -0.000105546 0)
(0.55919 -0.000135943 0)
(0.559125 -0.000141137 0)
(0.559057 -0.000130305 0)
(0.558994 -0.000110792 0)
(0.558941 -8.80472e-05 0)
(0.558898 -6.57586e-05 0)
(0.558866 -4.61209e-05 0)
(0.558844 -3.01725e-05 0)
(0.558829 -1.81406e-05 0)
(0.55882 -9.74893e-06 0)
(0.558815 -4.46465e-06 0)
(0.558813 -1.66853e-06 0)
(0.558812 -7.15381e-07 0)
(1.06555 -0.105333 0)
(0.966669 -0.10983 0)
(0.855839 -0.100855 0)
(0.750568 -0.0854482 0)
(0.658253 -0.0689811 0)
(0.581077 -0.053672 0)
(0.519171 -0.0404349 0)
(0.471303 -0.0295575 0)
(0.435476 -0.0209133 0)
(0.409533 -0.0141959 0)
(0.391465 -0.00907604 0)
(0.379509 -0.00525689 0)
(0.372179 -0.00248446 0)
(0.368249 -0.000544793 0)
(0.366733 0.000741542 0)
(0.366852 0.00152855 0)
(0.368007 0.00194357 0)
(0.369751 0.00208832 0)
(0.371757 0.00204682 0)
(0.373798 0.00188577 0)
(0.375722 0.00165579 0)
(0.37744 0.00139414 0)
(0.378904 0.00112741 0)
(0.380099 0.000873862 0)
(0.381033 0.000645326 0)
(0.381727 0.000448662 0)
(0.382213 0.000286898 0)
(0.382527 0.000160092 0)
(0.382705 6.60703e-05 0)
(0.382783 1.07483e-06 0)
(0.382791 -3.96574e-05 0)
(0.382755 -6.13644e-05 0)
(0.382695 -6.89027e-05 0)
(0.382626 -6.68338e-05 0)
(0.382559 -5.90221e-05 0)
(0.3825 -4.84734e-05 0)
(0.382451 -3.73433e-05 0)
(0.382413 -2.70251e-05 0)
(0.382386 -1.82853e-05 0)
(0.382367 -1.14206e-05 0)
(0.382355 -6.41178e-06 0)
(0.382349 -3.05706e-06 0)
(0.382345 -1.07616e-06 0)
(0.382344 -1.77445e-07 0)
(0.382343 -3.94325e-08 0)
(0.45546 -0.027114 0)
(0.394223 -0.0243683 0)
(0.335122 -0.0196581 0)
(0.28435 -0.0147086 0)
(0.243428 -0.0106279 0)
(0.211565 -0.00749641 0)
(0.187482 -0.00514744 0)
(0.169811 -0.00342024 0)
(0.157238 -0.0021646 0)
(0.148624 -0.00125501 0)
(0.143034 -0.000600813 0)
(0.139712 -0.00013942 0)
(0.138051 0.00017392 0)
(0.137564 0.000373015 0)
(0.137872 0.000484077 0)
(0.138677 0.000529006 0)
(0.139754 0.000527793 0)
(0.140942 0.000495047 0)
(0.142126 0.000442836 0)
(0.143231 0.000380684 0)
(0.144212 0.000315543 0)
(0.145047 0.000252216 0)
(0.145729 0.000193839 0)
(0.146265 0.000142284 0)
(0.146667 9.84891e-05 0)
(0.146953 6.2714e-05 0)
(0.147141 3.47206e-05 0)
(0.147251 1.39081e-05 0)
(0.147303 -5.75809e-07 0)
(0.147314 -9.73572e-06 0)
(0.147297 -1.46574e-05 0)
(0.147264 -1.64394e-05 0)
(0.147226 -1.60242e-05 0)
(0.147187 -1.42484e-05 0)
(0.147151 -1.17912e-05 0)
(0.147121 -9.15365e-06 0)
(0.147098 -6.67059e-06 0)
(0.147081 -4.53608e-06 0)
(0.147069 -2.83412e-06 0)
(0.147061 -1.57116e-06 0)
(0.147057 -7.0612e-07 0)
(0.147054 -1.75294e-07 0)
(0.147053 8.87059e-08 0)
(0.147053 1.46871e-07 0)
(0.147053 7.46767e-08 0)
)
;

boundaryField
{
    fixedWalls
    {
        type            noSlip;
    }
    inflowWall
    {
        type            fixedValue;
        value           uniform (1 0 0);
    }
    outflowWall
    {
        type            zeroGradient;
    }
    frontAndBack
    {
        type            empty;
    }
}


// ************************************************************************* //
