/*--------------------------------*- C++ -*----------------------------------*\
| =========                 |                                                 |
| \\      /  F ield         | OpenFOAM: The Open Source CFD Toolbox           |
|  \\    /   O peration     | Version:  2306                                  |
|   \\  /    A nd           | Website:  www.openfoam.com                      |
|    \\/     M anipulation  |                                                 |
\*---------------------------------------------------------------------------*/
FoamFile
{
    version     2.0;
    format      ascii;
    arch        "LSB;label=32;scalar=64";
    class       volVectorField;
    location    "0.74";
    object      U;
}
// * * * * * * * * * * * * * * * * * * * * * * * * * * * * * * * * * * * * * //

dimensions      [0 1 -1 0 0 0 0];

internalField   nonuniform List<vector> 
475
(
(0.814401 0.100525 0)
(0.775462 0.0919102 0)
(0.700508 0.0435594 0)
(0.669097 -0.00179255 0)
(0.669106 -0.0671855 0)
(1.01651 0.130052 0)
(1.13259 0.125204 0)
(1.20454 0.0589877 0)
(1.24616 -0.0105004 0)
(1.2654 -0.10407 0)
(1.0341 -0.00828927 0)
(1.18114 -0.023059 0)
(1.29871 -0.0416372 0)
(1.36208 -0.0693098 0)
(1.3764 -0.116569 0)
(1.01508 -0.141435 0)
(1.11957 -0.157286 0)
(1.16705 -0.11872 0)
(1.16578 -0.0950416 0)
(1.1326 -0.0924756 0)
(0.81272 -0.103758 0)
(0.760478 -0.101658 0)
(0.656279 -0.0637267 0)
(0.571948 -0.0402625 0)
(0.512392 -0.0299038 0)
(-0.00923066 0.00815878 0)
(-0.0231884 0.00601943 0)
(-0.0238579 -0.000464714 0)
(-0.00948189 -0.0059931 0)
(0.0148765 -0.00903338 0)
(0.0432644 -0.00992051 0)
(0.0710457 -0.00921614 0)
(0.095544 -0.00764674 0)
(0.115446 -0.00579548 0)
(0.130508 -0.00403381 0)
(0.14115 -0.0025525 0)
(0.148115 -0.00141446 0)
(0.15223 -0.000605401 0)
(0.154272 -7.34067e-05 0)
(0.154899 0.000244787 0)
(0.154631 0.000409022 0)
(0.153852 0.000470047 0)
(0.152832 0.000465915 0)
(0.151751 0.000424288 0)
(0.150722 0.000364456 0)
(0.149806 0.00029901 0)
(0.149032 0.000235629 0)
(0.148405 0.000178593 0)
(0.147915 0.000129898 0)
(0.147549 9.00619e-05 0)
(0.147285 5.87014e-05 0)
(0.147106 3.4928e-05 0)
(0.146991 1.76214e-05 0)
(0.146925 5.60515e-06 0)
(0.146895 -2.2421e-06 0)
(0.146888 -6.92341e-06 0)
(0.146897 -9.2934e-06 0)
(0.146915 -1.00713e-05 0)
(0.146936 -9.80063e-06 0)
(0.146959 -8.89973e-06 0)
(0.146981 -7.67919e-06 0)
(0.147 -6.35599e-06 0)
(0.147016 -5.07259e-06 0)
(0.14703 -3.9159e-06 0)
(0.147041 -2.93404e-06 0)
(0.147049 -2.15201e-06 0)
(0.147055 -1.58781e-06 0)
(0.14706 -1.27524e-06 0)
(0.147064 -1.31758e-06 0)
(0.147069 -1.81848e-06 0)
(-0.0127997 0.0267801 0)
(-0.0235473 0.0117329 0)
(-0.00385053 -0.0154995 0)
(0.0387993 -0.0369298 0)
(0.0944254 -0.0484102 0)
(0.153895 -0.0510765 0)
(0.210607 -0.0474502 0)
(0.260559 -0.0403109 0)
(0.301846 -0.0318722 0)
(0.334115 -0.0236087 0)
(0.358002 -0.0163528 0)
(0.374684 -0.0104604 0)
(0.385535 -0.0059736 0)
(0.391919 -0.00275639 0)
(0.395054 -0.000592228 0)
(0.395958 0.000753157 0)
(0.395434 0.0014982 0)
(0.394083 0.00182247 0)
(0.392338 0.0018692 0)
(0.390492 0.00174708 0)
(0.38873 0.00153422 0)
(0.387156 0.00128405 0)
(0.38582 0.00103129 0)
(0.384732 0.000796829 0)
(0.383881 0.000591752 0)
(0.38324 0.000420453 0)
(0.382777 0.000282981 0)
(0.382459 0.000176765 0)
(0.382255 9.78493e-05 0)
(0.382136 4.17324e-05 0)
(0.382079 3.91945e-06 0)
(0.382064 -1.97482e-05 0)
(0.382077 -3.29253e-05 0)
(0.382105 -3.86197e-05 0)
(0.382142 -3.92548e-05 0)
(0.38218 -3.67248e-05 0)
(0.382217 -3.24448e-05 0)
(0.38225 -2.74249e-05 0)
(0.382279 -2.23531e-05 0)
(0.382303 -1.76729e-05 0)
(0.382321 -1.3654e-05 0)
(0.382336 -1.04587e-05 0)
(0.382348 -8.20333e-06 0)
(0.382357 -7.06615e-06 0)
(0.382366 -7.3024e-06 0)
(-0.00603372 0.0407458 0)
(0.00773354 -0.00410243 0)
(0.0676353 -0.0619323 0)
(0.142096 -0.101109 0)
(0.219779 -0.119173 0)
(0.29399 -0.120281 0)
(0.360411 -0.109993 0)
(0.41688 -0.093518 0)
(0.46283 -0.0748671 0)
(0.498716 -0.0567179 0)
(0.525589 -0.0406202 0)
(0.544793 -0.027281 0)
(0.557759 -0.0168367 0)
(0.565861 -0.00907751 0)
(0.570328 -0.00361756 0)
(0.572209 -1.05039e-05 0)
(0.572348 0.00217965 0)
(0.571399 0.00333416 0)
(0.569854 0.00376961 0)
(0.568061 0.00373652 0)
(0.566253 0.00342327 0)
(0.564574 0.0029653 0)
(0.563102 0.00245545 0)
(0.56187 0.00195379 0)
(0.56088 0.00149596 0)
(0.560113 0.00110019 0)
(0.559542 0.000772781 0)
(0.559135 0.000512334 0)
(0.558861 0.000312879 0)
(0.558688 0.000166114 0)
(0.558592 6.29339e-05 0)
(0.55855 -5.57823e-06 0)
(0.558544 -4.75343e-05 0)
(0.558562 -6.99469e-05 0)
(0.558593 -7.85856e-05 0)
(0.558629 -7.8081e-05 0)
(0.558667 -7.19979e-05 0)
(0.558702 -6.29692e-05 0)
(0.558733 -5.28597e-05 0)
(0.558759 -4.29292e-05 0)
(0.558781 -3.39823e-05 0)
(0.558799 -2.65039e-05 0)
(0.558812 -2.07642e-05 0)
(0.558823 -1.69081e-05 0)
(0.558833 -1.51935e-05 0)
(0.0357714 0.0428857 0)
(0.0980913 -0.0629385 0)
(0.207653 -0.148187 0)
(0.309766 -0.191211 0)
(0.395772 -0.202913 0)
(0.466921 -0.193724 0)
(0.524556 -0.171903 0)
(0.570144 -0.143977 0)
(0.605408 -0.114695 0)
(0.632065 -0.087134 0)
(0.651677 -0.0630136 0)
(0.665621 -0.0430637 0)
(0.675093 -0.027349 0)
(0.681117 -0.0155308 0)
(0.684559 -0.00706211 0)
(0.686138 -0.00132378 0)
(0.68643 0.00228909 0)
(0.685886 0.0043188 0)
(0.684858 0.00522405 0)
(0.683603 0.00537334 0)
(0.682297 0.00505007 0)
(0.681055 0.00446347 0)
(0.679944 0.00376125 0)
(0.678998 0.00304231 0)
(0.678223 0.0023682 0)
(0.677613 0.0017731 0)
(0.67715 0.00127186 0)
(0.676813 0.000866461 0)
(0.67658 0.0005508 0)
(0.676427 0.000314334 0)
(0.676336 0.000144571 0)
(0.67629 2.87738e-05 0)
(0.676275 -4.49591e-05 0)
(0.676281 -8.71967e-05 0)
(0.676299 -0.000106813 0)
(0.676323 -0.000111007 0)
(0.676349 -0.000105401 0)
(0.676374 -9.4223e-05 0)
(0.676397 -8.05297e-05 0)
(0.676417 -6.64321e-05 0)
(0.676434 -5.33127e-05 0)
(0.676448 -4.20182e-05 0)
(0.676459 -3.3013e-05 0)
(0.676468 -2.64641e-05 0)
(0.676475 -2.26145e-05 0)
(0.19591 -0.120147 0)
(0.306739 -0.221986 0)
(0.451121 -0.27559 0)
(0.553098 -0.290616 0)
(0.618651 -0.278726 0)
(0.661733 -0.250629 0)
(0.690277 -0.214209 0)
(0.708892 -0.175172 0)
(0.720827 -0.137477 0)
(0.728411 -0.10356 0)
(0.733204 -0.0746404 0)
(0.7362 -0.0510625 0)
(0.738015 -0.0326104 0)
(0.739031 -0.0187436 0)
(0.739494 -0.00876888 0)
(0.73957 -0.00195649 0)
(0.739378 0.00238619 0)
(0.739009 0.00487652 0)
(0.73854 0.00603949 0)
(0.738032 0.00629767 0)
(0.737527 0.00597933 0)
(0.737055 0.00533029 0)
(0.736636 0.00452687 0)
(0.736279 0.0036892 0)
(0.735985 0.0028938 0)
(0.735752 0.00218456 0)
(0.735574 0.00158202 0)
(0.735443 0.00109076 0)
(0.735351 0.000705203 0)
(0.73529 0.000413949 0)
(0.735253 0.000202841 0)
(0.735233 5.71126e-05 0)
(0.735225 -3.72386e-05 0)
(0.735226 -9.27415e-05 0)
(0.735231 -0.000120145 0)
(0.735239 -0.000128175 0)
(0.735248 -0.000123679 0)
(0.735258 -0.000111852 0)
(0.735266 -9.64837e-05 0)
(0.735274 -8.02216e-05 0)
(0.73528 -6.48178e-05 0)
(0.735285 -5.13573e-05 0)
(0.735289 -4.04406e-05 0)
(0.735292 -3.2278e-05 0)
(0.735295 -2.70915e-05 0)
(0.831507 -0.300809 0)
(0.829618 -0.351455 0)
(0.842484 -0.357456 0)
(0.853669 -0.340726 0)
(0.850987 -0.307198 0)
(0.838208 -0.264371 0)
(0.820791 -0.218642 0)
(0.802273 -0.174363 0)
(0.784858 -0.134207 0)
(0.769833 -0.0995595 0)
(0.757736 -0.07086 0)
(0.748558 -0.047929 0)
(0.741977 -0.0302286 0)
(0.737535 -0.0170485 0)
(0.734747 -0.00762552 0)
(0.733172 -0.00121853 0)
(0.73244 0.00283821 0)
(0.73226 0.00514295 0)
(0.732416 0.00619135 0)
(0.732753 0.00638156 0)
(0.733167 0.00602453 0)
(0.733591 0.0053543 0)
(0.733985 0.00453965 0)
(0.734329 0.00369616 0)
(0.734615 0.00289774 0)
(0.734844 0.00218692 0)
(0.735019 0.00158349 0)
(0.735148 0.00109169 0)
(0.735239 0.0007058 0)
(0.735299 0.00041432 0)
(0.735336 0.000203063 0)
(0.735356 5.72379e-05 0)
(0.735363 -3.71731e-05 0)
(0.735363 -9.27104e-05 0)
(0.735357 -0.000120133 0)
(0.735349 -0.000128171 0)
(0.73534 -0.000123679 0)
(0.735331 -0.000111853 0)
(0.735322 -9.64847e-05 0)
(0.735315 -8.02221e-05 0)
(0.735308 -6.4818e-05 0)
(0.735303 -5.13572e-05 0)
(0.735299 -4.04403e-05 0)
(0.735296 -3.22777e-05 0)
(0.735293 -2.70912e-05 0)
(1.2714 -0.249423 0)
(1.2048 -0.309867 0)
(1.12609 -0.317485 0)
(1.05298 -0.29783 0)
(0.982712 -0.262809 0)
(0.916461 -0.220879 0)
(0.857407 -0.178357 0)
(0.807327 -0.139053 0)
(0.76658 -0.10481 0)
(0.734707 -0.0762254 0)
(0.71076 -0.0531694 0)
(0.693526 -0.0351339 0)
(0.681724 -0.0214483 0)
(0.674144 -0.0114052 0)
(0.669718 -0.00432503 0)
(0.66754 0.000409339 0)
(0.666903 0.0033379 0)
(0.66726 0.00492928 0)
(0.668188 0.00556719 0)
(0.669393 0.00556035 0)
(0.670674 0.00514966 0)
(0.671903 0.00451598 0)
(0.673007 0.00378919 0)
(0.67395 0.00305766 0)
(0.674722 0.00237707 0)
(0.675331 0.00177851 0)
(0.675793 0.0012753 0)
(0.676129 0.000868673 0)
(0.676362 0.000552211 0)
(0.676514 0.000315207 0)
(0.676605 0.000145087 0)
(0.676651 2.90598e-05 0)
(0.676666 -4.48134e-05 0)
(0.67666 -8.71306e-05 0)
(0.676643 -0.000106789 0)
(0.676619 -0.000111002 0)
(0.676592 -0.000105403 0)
(0.676567 -9.42262e-05 0)
(0.676544 -8.05322e-05 0)
(0.676524 -6.64334e-05 0)
(0.676507 -5.33129e-05 0)
(0.676493 -4.20177e-05 0)
(0.676482 -3.30122e-05 0)
(0.676474 -2.64632e-05 0)
(0.676466 -2.26137e-05 0)
(1.34033 -0.184997 0)
(1.24919 -0.219489 0)
(1.13628 -0.218896 0)
(1.02495 -0.198989 0)
(0.922436 -0.170336 0)
(0.832106 -0.139114 0)
(0.756221 -0.109291 0)
(0.695121 -0.0830036 0)
(0.647659 -0.0609931 0)
(0.612029 -0.0432055 0)
(0.586245 -0.0292306 0)
(0.568373 -0.0185351 0)
(0.556658 -0.0105756 0)
(0.549584 -0.00484758 0)
(0.545888 -0.000902321 0)
(0.544546 0.00165311 0)
(0.544766 0.00315793 0)
(0.545942 0.00388693 0)
(0.547624 0.00407089 0)
(0.549494 0.00389602 0)
(0.551345 0.00350627 0)
(0.553047 0.00300857 0)
(0.554531 0.00247865 0)
(0.555769 0.00196692 0)
(0.556763 0.0015039 0)
(0.557531 0.00110526 0)
(0.558103 0.000776103 0)
(0.55851 0.000514503 0)
(0.558786 0.000314258 0)
(0.558958 0.000166952 0)
(0.559055 6.34131e-05 0)
(0.559097 -5.32465e-06 0)
(0.559103 -4.74139e-05 0)
(0.559085 -6.98989e-05 0)
(0.559054 -7.85728e-05 0)
(0.559018 -7.80824e-05 0)
(0.55898 -7.20031e-05 0)
(0.558945 -6.29737e-05 0)
(0.558914 -5.28624e-05 0)
(0.558888 -4.29301e-05 0)
(0.558866 -3.39821e-05 0)
(0.558849 -2.65031e-05 0)
(0.558835 -2.07631e-05 0)
(0.558824 -1.6907e-05 0)
(0.558814 -1.51926e-05 0)
(1.06555 -0.105329 0)
(0.966679 -0.109825 0)
(0.855857 -0.100849 0)
(0.750594 -0.0854401 0)
(0.658292 -0.0689709 0)
(0.581132 -0.0536592 0)
(0.519247 -0.0404186 0)
(0.471405 -0.0295366 0)
(0.435612 -0.0208865 0)
(0.40971 -0.0141623 0)
(0.39169 -0.00903562 0)
(0.37979 -0.00521128 0)
(0.372517 -0.00243729 0)
(0.368642 -0.000501644 0)
(0.367172 0.000773444 0)
(0.367317 0.00154271 0)
(0.368473 0.00193458 0)
(0.370189 0.00205342 0)
(0.372137 0.00198698 0)
(0.374092 0.00180575 0)
(0.375911 0.0015635 0)
(0.377513 0.0012993 0)
(0.378865 0.00103993 0)
(0.37996 0.000802232 0)
(0.380817 0.000595388 0)
(0.381461 0.000422964 0)
(0.381925 0.00028469 0)
(0.382245 0.000177884 0)
(0.38245 9.85408e-05 0)
(0.382569 4.21305e-05 0)
(0.382627 4.12888e-06 0)
(0.382642 -1.9651e-05 0)
(0.382629 -3.2889e-05 0)
(0.3826 -3.86126e-05 0)
(0.382564 -3.92589e-05 0)
(0.382526 -3.67313e-05 0)
(0.382489 -3.245e-05 0)
(0.382455 -2.74279e-05 0)
(0.382427 -2.23544e-05 0)
(0.382403 -1.76729e-05 0)
(0.382384 -1.36534e-05 0)
(0.38237 -1.04579e-05 0)
(0.382358 -8.20252e-06 0)
(0.382349 -7.06545e-06 0)
(0.38234 -7.30179e-06 0)
(0.455463 -0.0271134 0)
(0.394229 -0.0243675 0)
(0.33513 -0.0196573 0)
(0.284362 -0.0147077 0)
(0.243444 -0.010627 0)
(0.211587 -0.0074953 0)
(0.18751 -0.00514602 0)
(0.169847 -0.00341822 0)
(0.157286 -0.0021616 0)
(0.148687 -0.00125067 0)
(0.143116 -0.000594919 0)
(0.139817 -0.000132072 0)
(0.138181 0.000182232 0)
(0.13772 0.000381407 0)
(0.138049 0.000490994 0)
(0.138868 0.00053291 0)
(0.139949 0.000527639 0)
(0.141126 0.000490255 0)
(0.142286 0.0004335 0)
(0.143353 0.00036763 0)
(0.144287 0.000300204 0)
(0.14507 0.000236378 0)
(0.145703 0.000179316 0)
(0.146195 0.000130611 0)
(0.146564 9.06927e-05 0)
(0.146829 5.9197e-05 0)
(0.14701 3.52777e-05 0)
(0.147126 1.78439e-05 0)
(0.147192 5.73195e-06 0)
(0.147223 -2.17914e-06 0)
(0.147229 -6.89837e-06 0)
(0.147221 -9.28809e-06 0)
(0.147203 -1.00743e-05 0)
(0.147181 -9.80584e-06 0)
(0.147159 -8.90435e-06 0)
(0.147137 -7.68233e-06 0)
(0.147118 -6.35771e-06 0)
(0.147101 -5.07328e-06 0)
(0.147088 -3.91596e-06 0)
(0.147077 -2.93381e-06 0)
(0.147069 -2.15168e-06 0)
(0.147063 -1.58749e-06 0)
(0.147058 -1.27497e-06 0)
(0.147053 -1.31737e-06 0)
(0.147049 -1.81829e-06 0)
)
;

boundaryField
{
    fixedWalls
    {
        type            noSlip;
    }
    inflowWall
    {
        type            fixedValue;
        value           uniform (1 0 0);
    }
    outflowWall
    {
        type            zeroGradient;
    }
    frontAndBack
    {
        type            empty;
    }
}


// ************************************************************************* //
