/*--------------------------------*- C++ -*----------------------------------*\
| =========                 |                                                 |
| \\      /  F ield         | OpenFOAM: The Open Source CFD Toolbox           |
|  \\    /   O peration     | Version:  2306                                  |
|   \\  /    A nd           | Website:  www.openfoam.com                      |
|    \\/     M anipulation  |                                                 |
\*---------------------------------------------------------------------------*/
FoamFile
{
    version     2.0;
    format      ascii;
    arch        "LSB;label=32;scalar=64";
    class       volScalarField;
    location    "1.13";
    object      p;
}
// * * * * * * * * * * * * * * * * * * * * * * * * * * * * * * * * * * * * * //

dimensions      [0 2 -2 0 0 0 0];

internalField   nonuniform List<scalar> 
47500
(
14.2636
8.31616
5.39827
4.19501
3.55687
3.16766
2.9173
2.7443
2.61605
2.51597
2.43484
2.36709
2.3091
2.25842
2.21333
2.17257
2.1352
2.10051
2.06795
2.03707
2.00753
1.97904
1.95139
1.92438
1.89785
1.87169
1.84577
1.82001
1.79433
1.76867
1.74297
1.71719
1.69128
1.66523
1.63901
1.61262
1.58606
1.55936
1.53258
1.5058
1.47919
1.453
1.42761
1.40364
1.38187
1.363
1.34745
1.33359
1.28841
1.04328
9.49511
7.11983
5.49164
4.53466
3.89691
3.45613
3.14914
2.92822
2.76269
2.63423
2.53143
2.44688
2.37568
2.31444
2.26078
2.21297
2.16974
2.13011
2.09336
2.05889
2.02625
1.99507
1.96505
1.93596
1.90759
1.87978
1.85238
1.82527
1.79836
1.77155
1.74477
1.71797
1.69107
1.66404
1.63683
1.6094
1.58173
1.5538
1.52558
1.49708
1.46827
1.43913
1.40958
1.37942
1.34803
1.31385
1.27372
1.222
1.13977
0.970463
6.67606
5.93527
5.1272
4.46306
3.94452
3.54966
3.25203
3.02531
2.84922
2.70954
2.59636
2.50272
2.42371
2.35582
2.2965
2.24387
2.1965
2.15331
2.11347
2.07631
2.04132
2.00807
1.97623
1.94551
1.91568
1.88655
1.85796
1.82977
1.80185
1.77411
1.74645
1.7188
1.69108
1.66322
1.63517
1.60686
1.57824
1.54923
1.51977
1.48975
1.45906
1.42747
1.39465
1.36002
1.3225
1.28019
1.22988
1.16696
1.0827
0.962353
5.23431
5.05263
4.64951
4.21693
3.83683
3.52091
3.26392
3.05619
2.88763
2.74955
2.635
2.53866
2.45644
2.38528
2.32281
2.26725
2.21721
2.17161
2.12959
2.09049
2.05374
2.01892
1.98566
1.95366
1.92267
1.89248
1.86292
1.83383
1.80508
1.77655
1.74815
1.71978
1.69136
1.6628
1.63403
1.60497
1.57552
1.54561
1.5151
1.48386
1.45168
1.41829
1.38326
1.34597
1.30544
1.26023
1.2083
1.14713
1.07328
0.983899
4.39925
4.41398
4.22389
3.95437
3.6873
3.4449
3.23306
3.05191
2.89834
2.76816
2.65726
2.56206
2.47955
2.40731
2.34337
2.28616
2.23443
2.18717
2.14358
2.10299
2.06487
2.02878
1.99434
1.96125
1.92927
1.89816
1.86774
1.83786
1.80836
1.77914
1.75007
1.72105
1.692
1.66281
1.63339
1.60366
1.57351
1.54282
1.51145
1.47925
1.44597
1.41134
1.37496
1.33627
1.29458
1.24894
1.1983
1.14172
1.07852
1.00976
3.87568
3.95338
3.87489
3.71212
3.52866
3.34703
3.17726
3.02416
2.88873
2.76992
2.66587
2.57455
2.49401
2.42249
2.35851
2.30079
2.24827
2.20008
2.15548
2.11387
2.07474
2.03767
2.0023
1.96834
1.93552
1.90364
1.87249
1.84192
1.81178
1.78194
1.75228
1.7227
1.69309
1.66336
1.6334
1.60312
1.57239
1.54111
1.50911
1.47625
1.44229
1.40699
1.37001
1.33097
1.2894
1.24482
1.19683
1.14539
1.09107
1.03588
3.53079
3.61952
3.59619
3.49996
3.3756
3.2416
3.10812
2.9815
2.8648
2.75891
2.66356
2.57793
2.50098
2.4316
2.36875
2.31148
2.25897
2.21049
2.16541
2.12321
2.08342
2.04567
2.00961
1.97497
1.9415
1.90898
1.87723
1.84608
1.8154
1.78503
1.75488
1.72482
1.69476
1.66458
1.63419
1.60349
1.57235
1.54066
1.50828
1.47506
1.44082
1.40535
1.36842
1.32978
1.28921
1.24653
1.20176
1.1553
1.10809
1.06205
3.29068
3.37292
3.37571
3.32012
3.23646
3.13839
3.03456
2.93123
2.83219
2.73932
2.65339
2.57442
2.50207
2.43579
2.37493
2.31888
2.26701
2.21877
2.17367
2.13125
2.09112
2.05294
2.01642
1.98129
1.94731
1.9143
1.88206
1.85044
1.81931
1.78852
1.75795
1.72751
1.69708
1.66657
1.63586
1.60486
1.57347
1.54156
1.50903
1.47574
1.44154
1.40631
1.36989
1.33217
1.29308
1.25266
1.21116
1.16912
1.12752
1.0879
3.11483
3.18638
3.20096
3.17007
3.11406
3.04249
2.9621
2.87839
2.79509
2.71452
2.63795
2.56599
2.49877
2.43617
2.37791
2.32361
2.27288
2.22532
2.18056
2.13824
2.09804
2.05967
2.02287
1.9874
1.95307
1.91968
1.88707
1.85508
1.82358
1.79245
1.76157
1.73083
1.70013
1.66937
1.63846
1.6073
1.5758
1.54385
1.51136
1.47822
1.44435
1.40965
1.37405
1.33754
1.30016
1.26207
1.22361
1.18536
1.14818
1.11323
2.98096
3.04208
3.06142
3.0455
3.00819
2.95593
2.89376
2.82614
2.75645
2.687
2.6193
2.55425
2.49234
2.43374
2.37843
2.32626
2.27702
2.23048
2.18635
2.14439
2.10434
2.06597
2.02907
1.99343
1.95886
1.92521
1.89232
1.86006
1.82829
1.79689
1.76577
1.73482
1.70393
1.67303
1.64202
1.61081
1.57933
1.54748
1.5152
1.48241
1.44905
1.41509
1.3805
1.34535
1.30974
1.27389
1.23817
1.20311
1.16942
1.13798
2.87614
2.92826
2.94894
2.94211
2.91744
2.87921
2.83104
2.77642
2.71822
2.65856
2.59897
2.54051
2.48383
2.42931
2.37713
2.32733
2.27984
2.23454
2.19128
2.14989
2.11018
2.07198
2.03512
1.99942
1.96474
1.93093
1.89786
1.8654
1.83344
1.80186
1.77058
1.73948
1.7085
1.67753
1.64651
1.61536
1.58401
1.55239
1.52045
1.48813
1.45543
1.42232
1.38885
1.3551
1.32122
1.28745
1.25413
1.22174
1.19085
1.16212
2.79237
2.83705
2.85746
2.85612
2.84003
2.812
2.77453
2.73031
2.68167
2.63047
2.57815
2.52576
2.47407
2.42357
2.37458
2.32725
2.28165
2.23777
2.19555
2.15489
2.11567
2.07778
2.04108
2.00544
1.97075
1.93687
1.9037
1.87112
1.83903
1.80735
1.77596
1.74481
1.71379
1.68284
1.6519
1.62088
1.58975
1.55845
1.52694
1.49521
1.46324
1.43106
1.39873
1.36636
1.33411
1.30221
1.271
1.24084
1.21222
1.18563
2.72442
2.76304
2.78246
2.78442
2.7742
2.75357
2.72428
2.68834
2.64758
2.6036
2.55765
2.51077
2.46372
2.41707
2.3712
2.32637
2.28274
2.24038
2.19931
2.1595
2.12089
2.08341
2.04698
2.0115
1.97687
1.94301
1.90981
1.87718
1.84504
1.81331
1.7819
1.75074
1.71976
1.68889
1.65808
1.62728
1.59644
1.56553
1.53453
1.50342
1.47223
1.441
1.4098
1.37874
1.348
1.31779
1.28838
1.26011
1.23335
1.20846
2.66874
2.70243
2.72057
2.72451
2.7183
2.7031
2.68006
2.65067
2.61638
2.57848
2.53807
2.4961
2.45329
2.41023
2.36736
2.32498
2.28333
2.24254
2.20268
2.1638
2.12588
2.08891
2.05283
2.01758
1.9831
1.94932
1.91616
1.88355
1.85142
1.81969
1.78831
1.7572
1.72631
1.69559
1.66498
1.63444
1.60395
1.57347
1.54301
1.51257
1.48217
1.45187
1.42175
1.39193
1.36256
1.33384
1.306
1.27932
1.25409
1.2306
2.62282
2.65247
2.6693
2.67437
2.67094
2.65971
2.64146
2.61726
2.58824
2.55544
2.5198
2.48214
2.44315
2.4034
2.36333
2.32331
2.28359
2.24436
2.20575
2.16785
2.13068
2.09427
2.0586
2.02365
1.98938
1.95575
1.92269
1.89015
1.85808
1.82642
1.79511
1.76411
1.73336
1.70282
1.67245
1.64222
1.61211
1.58211
1.55221
1.52244
1.49283
1.46343
1.43434
1.40565
1.37752
1.35011
1.32363
1.2983
1.27435
1.252
2.58482
2.61117
2.62674
2.63243
2.63092
2.62264
2.60806
2.58797
2.56323
2.53468
2.50309
2.46918
2.43358
2.39682
2.35935
2.32154
2.28367
2.24596
2.20859
2.17167
2.13529
2.09948
2.06428
2.02968
1.99567
1.96222
1.92931
1.8969
1.86494
1.83338
1.8022
1.77134
1.74078
1.71046
1.68037
1.65048
1.62079
1.59127
1.56195
1.53284
1.50399
1.47546
1.44731
1.41967
1.39264
1.36639
1.34109
1.3169
1.29402
1.27263
2.55338
2.57702
2.59145
2.59744
2.59727
2.59116
2.5794
2.56257
2.5413
2.51627
2.4881
2.45743
2.42479
2.3907
2.35558
2.3198
2.28366
2.24741
2.21124
2.1753
2.1397
2.10452
2.06981
2.03559
2.00188
1.96867
1.93596
1.9037
1.87189
1.84049
1.80947
1.7788
1.74845
1.71839
1.6886
1.65908
1.62981
1.60079
1.57204
1.54358
1.51546
1.48774
1.46047
1.43377
1.40774
1.38251
1.35822
1.33502
1.31305
1.29245
2.52748
2.54888
2.5623
2.56841
2.56916
2.56467
2.55509
2.54082
2.52236
2.50021
2.47492
2.44699
2.41693
2.38518
2.35216
2.31822
2.28367
2.24878
2.21374
2.17875
2.14392
2.10936
2.07516
2.04134
2.00796
1.97502
1.94252
1.91047
1.87884
1.84763
1.8168
1.78635
1.75624
1.72647
1.69701
1.66787
1.63903
1.61051
1.58232
1.55449
1.52706
1.50009
1.47364
1.4478
1.42265
1.39832
1.37492
1.35256
1.33136
1.31144
2.50631
2.52589
2.53843
2.54454
2.54594
2.54266
2.53475
2.5225
2.50628
2.48649
2.46357
2.43795
2.41008
2.38036
2.34918
2.31688
2.28376
2.2501
2.21612
2.18201
2.14792
2.11397
2.08026
2.04686
2.01382
1.98117
1.94892
1.9171
1.88569
1.85469
1.82409
1.79387
1.76404
1.73457
1.70546
1.6767
1.6483
1.62027
1.59263
1.56541
1.53863
1.51236
1.48666
1.46159
1.43724
1.4137
1.39107
1.36944
1.34891
1.32956
2.48926
2.50737
2.51917
2.52522
2.52707
2.52468
2.51805
2.50738
2.49294
2.47505
2.45407
2.43037
2.40433
2.37633
2.34673
2.31584
2.28399
2.25143
2.2184
2.18509
2.15169
2.11832
2.08509
2.0521
2.0194
1.98705
1.95508
1.9235
1.89232
1.86156
1.83121
1.80126
1.77172
1.74257
1.71381
1.68546
1.6575
1.62995
1.60284
1.57619
1.55003
1.52441
1.49939
1.47503
1.45139
1.42855
1.40659
1.3856
1.36564
1.34678
2.47587
2.49281
2.504
2.50997
2.51212
2.51039
2.50473
2.49527
2.48222
2.46583
2.4464
2.42425
2.39971
2.37314
2.34485
2.31517
2.28439
2.25278
2.22058
2.188
2.15521
2.12237
2.0896
2.057
2.02465
1.9926
1.9609
1.92958
1.89867
1.86816
1.83808
1.80842
1.77918
1.75036
1.72197
1.69401
1.66649
1.63942
1.61282
1.58671
1.56113
1.53612
1.51173
1.488
1.465
1.44278
1.42142
1.40098
1.38151
1.36307
2.46579
2.48182
2.49252
2.4984
2.50075
2.4995
2.49455
2.486
2.47401
2.45877
2.44054
2.41961
2.39626
2.37082
2.3436
2.3149
2.28501
2.25419
2.2227
2.19073
2.15848
2.12611
2.09376
2.06152
2.02949
1.99774
1.96633
1.93528
1.90463
1.8744
1.8446
1.81523
1.78631
1.75784
1.72982
1.70226
1.67517
1.64856
1.62246
1.59687
1.57184
1.54739
1.52357
1.50042
1.47799
1.45633
1.4355
1.41554
1.3965
1.37843
2.45873
2.47409
2.48444
2.49023
2.49272
2.49179
2.48735
2.47945
2.46822
2.45382
2.43648
2.41644
2.39399
2.36941
2.343
2.31505
2.28586
2.25567
2.22474
2.19328
2.16149
2.12952
2.09753
2.06562
2.0339
2.00244
1.9713
1.94052
1.91015
1.8802
1.85069
1.82164
1.79305
1.76493
1.73728
1.71012
1.68346
1.6573
1.63166
1.60657
1.58205
1.55813
1.53484
1.51222
1.49031
1.46915
1.44878
1.42924
1.41058
1.39282
2.4545
2.46943
2.47953
2.48526
2.48782
2.48711
2.48299
2.47551
2.46478
2.45094
2.43419
2.41476
2.3929
2.36891
2.34307
2.31566
2.28696
2.25723
2.22672
2.19565
2.16421
2.13258
2.10089
2.06927
2.03783
2.00664
1.97577
1.94526
1.91517
1.8855
1.8563
1.82756
1.79931
1.77154
1.74427
1.71751
1.69126
1.66554
1.64036
1.61574
1.5917
1.56827
1.54547
1.52333
1.50189
1.48117
1.46122
1.44207
1.42373
1.40625
2.453
2.46769
2.47766
2.48336
2.48595
2.48533
2.48138
2.47411
2.46363
2.45008
2.43364
2.41454
2.39301
2.36935
2.34383
2.31673
2.28833
2.25889
2.22865
2.19784
2.16666
2.13527
2.10383
2.07245
2.04125
2.01031
1.97969
1.94946
1.91964
1.89027
1.86137
1.83295
1.80504
1.77763
1.75073
1.72437
1.69853
1.67323
1.64849
1.62432
1.60073
1.57776
1.55541
1.53371
1.51269
1.49238
1.47281
1.45399
1.43594
1.4187
2.45414
2.46881
2.47876
2.48445
2.48704
2.48642
2.48247
2.47522
2.46477
2.45124
2.43484
2.41578
2.39432
2.37072
2.34527
2.31826
2.28996
2.26063
2.23052
2.19985
2.16882
2.13759
2.10633
2.07515
2.04415
2.01344
1.98306
1.95308
1.92353
1.89445
1.86586
1.83777
1.8102
1.78314
1.75663
1.73065
1.70521
1.68033
1.65601
1.63226
1.6091
1.58655
1.56462
1.54333
1.5227
1.50276
1.48351
1.46499
1.4472
1.43017
2.45793
2.47278
2.48283
2.48854
2.49108
2.49037
2.48627
2.47883
2.46817
2.45442
2.43778
2.41849
2.39681
2.37302
2.34741
2.32026
2.29186
2.26247
2.23233
2.20167
2.17068
2.13954
2.10838
2.07735
2.04653
2.016
1.98585
1.95611
1.92684
1.89804
1.86976
1.84199
1.81476
1.78806
1.76191
1.73632
1.71127
1.68679
1.66287
1.63953
1.61678
1.59462
1.57308
1.55217
1.53189
1.51228
1.49333
1.47508
1.45752
1.44067
2.46442
2.47966
2.48993
2.49567
2.49813
2.49721
2.49281
2.48498
2.47386
2.45961
2.44246
2.42266
2.40049
2.37624
2.35022
2.32272
2.29402
2.26439
2.23408
2.2033
2.17226
2.14111
2.11
2.07905
2.04836
2.01801
1.98806
1.95855
1.92954
1.90103
1.87304
1.8456
1.81871
1.79237
1.76658
1.74136
1.71669
1.69259
1.66907
1.64611
1.62374
1.60196
1.58077
1.5602
1.54025
1.52094
1.50227
1.48425
1.46689
1.4502
2.47373
2.48959
2.50018
2.50599
2.50831
2.50706
2.50217
2.49372
2.48188
2.46686
2.4489
2.4283
2.40535
2.38038
2.3537
2.32562
2.29643
2.26639
2.23575
2.20474
2.17353
2.14229
2.11117
2.08026
2.04966
2.01945
1.98969
1.9604
1.93164
1.9034
1.87572
1.8486
1.82204
1.79605
1.77062
1.74576
1.72147
1.69774
1.67458
1.65199
1.62998
1.60854
1.58769
1.56744
1.54779
1.52874
1.51031
1.49251
1.47533
1.45879
2.48603
2.50275
2.51379
2.51967
2.52178
2.52007
2.51448
2.50515
2.4923
2.47619
2.45711
2.43539
2.41138
2.38541
2.35782
2.32893
2.29905
2.26844
2.23734
2.20596
2.1745
2.1431
2.11189
2.08098
2.05044
2.02035
1.99075
1.96167
1.93315
1.90519
1.8778
1.85099
1.82476
1.79911
1.77403
1.74953
1.72559
1.70222
1.67941
1.65717
1.63549
1.61438
1.59384
1.57388
1.5545
1.5357
1.51749
1.49987
1.48285
1.46643
2.5016
2.51944
2.53106
2.53701
2.5388
2.53644
2.5299
2.51939
2.50521
2.48766
2.46711
2.44395
2.41855
2.39129
2.36254
2.33263
2.30186
2.2705
2.2388
2.20696
2.17515
2.14352
2.11218
2.08122
2.05072
2.02072
1.99127
1.96238
1.93409
1.90639
1.8793
1.8528
1.82689
1.80157
1.77683
1.75267
1.72907
1.70604
1.68357
1.66165
1.64029
1.61948
1.59923
1.57953
1.56039
1.54182
1.5238
1.50636
1.48948
1.47317
2.52077
2.54003
2.55236
2.55835
2.5597
2.55645
2.54865
2.53661
2.52069
2.50132
2.47892
2.45395
2.42683
2.39799
2.36781
2.33665
2.30481
2.27256
2.24013
2.20772
2.17549
2.14356
2.11204
2.08099
2.05049
2.02057
1.99125
1.96256
1.93449
1.90705
1.88023
1.85403
1.82844
1.80344
1.77903
1.7552
1.73193
1.70922
1.68706
1.66545
1.64438
1.62385
1.60386
1.58441
1.5655
1.54712
1.52928
1.51198
1.49523
1.47901
2.544
2.56504
2.57822
2.58419
2.58489
2.58044
2.571
2.55698
2.53888
2.51722
2.49254
2.46535
2.43617
2.40544
2.37357
2.34093
2.30784
2.27454
2.24127
2.20821
2.17548
2.14321
2.11146
2.08031
2.04979
2.01993
1.99074
1.96222
1.93437
1.90718
1.88064
1.85473
1.82944
1.80476
1.78066
1.75714
1.73418
1.71178
1.68992
1.66859
1.64779
1.62752
1.60777
1.58854
1.56982
1.55163
1.53394
1.51678
1.50012
1.48398
2.57191
2.59513
2.60929
2.61514
2.61491
2.60885
2.59727
2.58073
2.55989
2.53541
2.50795
2.47812
2.44648
2.41353
2.37972
2.34539
2.31087
2.2764
2.24219
2.20839
2.17512
2.14245
2.11046
2.07919
2.04864
2.01883
1.98975
1.9614
1.93376
1.90682
1.88054
1.85492
1.82992
1.80554
1.78174
1.75852
1.73586
1.71374
1.69215
1.67109
1.65054
1.63051
1.61097
1.59194
1.5734
1.55536
1.53782
1.52076
1.5042
1.48812
2.60526
2.63115
2.64643
2.65196
2.65039
2.64218
2.6278
2.60806
2.58381
2.5559
2.52511
2.49215
2.45766
2.42217
2.38613
2.34991
2.31382
2.27806
2.24282
2.20823
2.17437
2.14129
2.10904
2.07762
2.04703
2.01727
1.98831
1.96013
1.9327
1.90599
1.87997
1.85462
1.82991
1.80581
1.78231
1.75937
1.73698
1.71513
1.6938
1.67298
1.65266
1.63283
1.61349
1.59464
1.57626
1.55836
1.54093
1.52397
1.50748
1.49146
2.64508
2.67423
2.69074
2.69564
2.69216
2.68103
2.66302
2.63922
2.61076
2.57867
2.54392
2.5073
2.46953
2.43116
2.39265
2.35436
2.31655
2.27941
2.24309
2.20767
2.17319
2.1397
2.10718
2.07562
2.045
2.01529
1.98644
1.95843
1.9312
1.90473
1.87896
1.85388
1.82944
1.80561
1.78238
1.75971
1.73758
1.71597
1.69488
1.67428
1.65417
1.63453
1.61537
1.59667
1.57842
1.56064
1.54331
1.52643
1.51
1.49402
2.69272
2.72587
2.74366
2.74742
2.74118
2.7261
2.70334
2.67441
2.64074
2.60363
2.5642
2.52337
2.48187
2.4403
2.39909
2.35856
2.31893
2.28034
2.2429
2.20663
2.17155
2.13764
2.10486
2.07318
2.04254
2.01289
1.98416
1.95632
1.9293
1.90305
1.87754
1.85271
1.82853
1.80497
1.78199
1.75956
1.73767
1.71629
1.69541
1.67502
1.65509
1.63563
1.61661
1.59805
1.57993
1.56225
1.545
1.52818
1.5118
1.49585
2.74999
2.78805
2.80709
2.80888
2.79864
2.77817
2.74921
2.71377
2.67371
2.63059
2.58569
2.54003
2.49438
2.4493
2.40517
2.36227
2.32076
2.2807
2.24214
2.20504
2.16937
2.13507
2.10207
2.07029
2.03964
2.01007
1.98148
1.95382
1.92701
1.90099
1.87572
1.85114
1.82721
1.8039
1.78116
1.75896
1.73729
1.71613
1.69544
1.67522
1.65546
1.63615
1.61727
1.59882
1.5808
1.5632
1.54602
1.52926
1.51291
1.49697
2.81941
2.86349
2.88352
2.88201
2.86593
2.83807
2.80098
2.75733
2.70944
2.65918
2.60797
2.55687
2.50664
2.45777
2.41059
2.36525
2.32182
2.28031
2.24066
2.20278
2.16658
2.13194
2.09875
2.06691
2.0363
2.00683
1.9784
1.95093
1.92433
1.89855
1.87352
1.84919
1.8255
1.80242
1.77991
1.75793
1.73647
1.71549
1.69498
1.67493
1.65531
1.63613
1.61736
1.59901
1.58108
1.56354
1.54641
1.52969
1.51336
1.49743
2.90451
2.956
2.97629
2.9693
2.94466
2.90666
2.8589
2.80491
2.74751
2.68884
2.63041
2.57328
2.51811
2.46526
2.41492
2.36714
2.32185
2.27895
2.23829
2.19972
2.16306
2.12816
2.09486
2.06301
2.03248
2.00315
1.9749
1.94764
1.92128
1.89574
1.87096
1.84686
1.82341
1.80056
1.77826
1.75649
1.73521
1.71441
1.69406
1.67415
1.65466
1.63559
1.61692
1.59865
1.58078
1.5633
1.54621
1.52951
1.51319
1.49726
3.0105
3.07096
3.08991
3.07386
3.0366
2.98461
2.92291
2.85595
2.7871
2.71868
2.65217
2.58848
2.52808
2.47116
2.41769
2.36755
2.32052
2.27636
2.23484
2.1957
2.15871
2.12365
2.09032
2.05854
2.02814
1.999
1.97097
1.94395
1.91784
1.89256
1.86802
1.84417
1.82095
1.79832
1.77623
1.75465
1.73355
1.7129
1.6927
1.67291
1.65354
1.63456
1.61598
1.59778
1.57996
1.56252
1.54545
1.52876
1.51244
1.4965
3.14536
3.21626
3.23045
3.19945
3.14353
3.07226
2.99238
2.90936
2.82693
2.74739
2.67202
2.6014
2.53569
2.47475
2.41831
2.366
2.31745
2.27226
2.23007
2.19054
2.15336
2.11828
2.08503
2.05341
2.02323
1.99434
1.96658
1.93983
1.914
1.88899
1.86471
1.84111
1.81813
1.79571
1.77382
1.75242
1.73149
1.71099
1.69092
1.67125
1.65197
1.63307
1.61456
1.59641
1.57863
1.56121
1.54416
1.52747
1.51114
1.49518
3.32202
3.40362
3.40604
3.35037
3.26684
3.1691
3.06579
2.96317
2.86499
2.77314
2.68837
2.61072
2.53983
2.47515
2.41607
2.36196
2.31221
2.26629
2.2237
2.18402
2.14687
2.11192
2.0789
2.04755
2.01768
1.98911
1.96167
1.93525
1.90973
1.88501
1.86102
1.83768
1.81493
1.79274
1.77104
1.74982
1.72905
1.70869
1.68874
1.66917
1.64998
1.63115
1.61269
1.59458
1.57683
1.55942
1.54237
1.52567
1.50933
1.49334
3.56274
3.65086
3.62719
3.53091
3.40671
3.27306
3.1401
3.01417
2.89831
2.79339
2.69915
2.61477
2.5392
2.47136
2.41021
2.35482
2.30435
2.25811
2.21547
2.17593
2.13904
2.10444
2.07181
2.04087
2.01142
1.98326
1.95622
1.93018
1.90501
1.88062
1.85693
1.83387
1.81137
1.7894
1.76791
1.74686
1.72624
1.70602
1.68618
1.6667
1.64759
1.62882
1.6104
1.59232
1.57458
1.55719
1.54013
1.52341
1.50704
1.49101
3.90805
3.98517
3.90639
3.7436
3.56031
3.37903
3.20976
3.0573
2.92264
2.80472
2.70171
2.61155
2.53231
2.46225
2.39988
2.34393
2.29337
2.24733
2.20508
2.16604
2.12971
2.09569
2.06364
2.03328
2.00437
1.97672
1.95017
1.92457
1.89981
1.87579
1.85243
1.82966
1.80744
1.7857
1.76441
1.74355
1.72308
1.70299
1.68325
1.66387
1.64482
1.6261
1.60772
1.58966
1.57193
1.55452
1.53745
1.52071
1.5043
1.48823
4.43183
4.44604
4.25572
3.98619
3.71929
3.47721
3.26581
3.08522
2.93233
2.80295
2.69298
2.59884
2.51754
2.44665
2.38421
2.32868
2.27881
2.2336
2.19225
2.15413
2.1187
2.08553
2.05429
2.02468
1.99647
1.96945
1.94347
1.91839
1.89409
1.87049
1.8475
1.82507
1.80313
1.78164
1.76057
1.73989
1.71958
1.69961
1.67998
1.66068
1.64169
1.62302
1.60467
1.58662
1.56889
1.55147
1.53437
1.51759
1.50114
1.48502
5.26689
5.0848
4.68149
4.24891
3.86893
3.55325
3.29661
3.08934
2.92136
2.78397
2.67025
2.57486
2.49375
2.42383
2.36277
2.30878
2.26049
2.21682
2.17694
2.14018
2.106
2.07398
2.04378
2.0151
1.98773
1.96146
1.93615
1.91167
1.8879
1.86476
1.84219
1.82011
1.79848
1.77726
1.75642
1.73593
1.71577
1.69594
1.67642
1.65719
1.63826
1.61963
1.60129
1.58325
1.56551
1.54807
1.53094
1.51412
1.49762
1.48144
6.70849
5.96739
5.15915
4.49497
3.97647
3.58176
3.28437
3.058
2.88238
2.74329
2.63082
2.53803
2.46002
2.39327
2.33526
2.28409
2.23835
2.19699
2.15916
2.12422
2.09166
2.06107
2.03214
2.00458
1.9782
1.95281
1.92826
1.90445
1.88127
1.85865
1.83652
1.81483
1.79353
1.77259
1.75199
1.73171
1.71172
1.69202
1.67259
1.65345
1.63457
1.61597
1.59765
1.57961
1.56185
1.54438
1.52721
1.51034
1.49379
1.47755
9.52727
7.15176
5.52337
4.56625
3.92843
3.48766
3.18079
2.9601
2.79492
2.66694
2.56474
2.48094
2.41062
2.35042
2.29794
2.25148
2.20976
2.17182
2.13694
2.10454
2.07418
2.04549
2.01821
1.99209
1.96695
1.94265
1.91905
1.89606
1.8736
1.85159
1.82999
1.80876
1.78785
1.76724
1.74691
1.72685
1.70705
1.68749
1.66818
1.64911
1.63029
1.61172
1.59341
1.57536
1.55757
1.54006
1.52284
1.50591
1.48928
1.47297
14.2955
8.34783
5.42961
4.22605
3.58768
3.19832
2.94793
2.77502
2.647
2.54726
2.46662
2.39948
2.34225
2.29247
2.24843
2.20888
2.17288
2.13973
2.10887
2.07988
2.05243
2.02624
2.00109
1.97682
1.95327
1.93034
1.90793
1.88597
1.86439
1.84314
1.82219
1.80151
1.78107
1.76085
1.74085
1.72106
1.70147
1.68207
1.66289
1.64391
1.62515
1.6066
1.58829
1.57021
1.55239
1.53482
1.51753
1.50052
1.4838
1.46739
1.01267
1.01221
1.01134
1.01028
1.00922
1.00832
1.00767
1.00733
1.00736
1.00776
1.00856
1.00976
1.01135
1.01332
1.01566
1.01835
1.02137
1.0247
1.02832
1.0322
1.03632
1.04066
1.04519
1.04989
1.05473
1.05969
1.06475
1.06989
1.07508
1.0803
1.08554
1.09077
1.09598
1.10116
1.10627
1.11132
1.11628
1.12115
1.1259
1.13053
1.13503
1.13939
1.1436
1.14765
1.15153
1.15524
1.15877
1.16211
1.16527
1.16824
1.17101
1.17359
1.17596
1.17814
1.18012
1.1819
1.18348
1.18485
1.18604
1.18702
1.18781
1.18841
1.18882
1.18904
1.18907
1.18893
1.18861
1.18812
1.18746
1.18664
1.18566
1.18452
1.18322
1.18179
1.18021
1.17849
1.17664
1.17466
1.17255
1.17033
1.168
1.16555
1.163
1.16035
1.15761
1.15477
1.15184
1.14884
1.14575
1.14259
1.13936
1.13606
1.1327
1.12928
1.12581
1.12228
1.11871
1.11509
1.11143
1.10773
1.104
1.10023
1.09643
1.09261
1.08876
1.08489
1.081
1.07709
1.07317
1.06923
1.06528
1.06133
1.05736
1.05339
1.04942
1.04544
1.04146
1.03748
1.0335
1.02953
1.02556
1.02159
1.01763
1.01368
1.00973
1.0058
1.00187
0.997949
0.994042
0.990145
0.98626
0.982388
0.978528
0.974681
0.970848
0.967028
0.963223
0.959431
0.955655
0.951893
0.948146
0.944414
0.940697
0.936995
0.933309
0.929637
0.925982
0.922341
0.918715
0.915105
0.91151
0.90793
0.904365
0.900814
0.897279
0.893758
0.890251
0.886758
0.88328
0.879816
0.876365
0.872928
0.869504
0.866093
0.862695
0.85931
0.855938
0.852577
0.849229
0.845893
0.842568
0.839254
0.835952
0.832661
0.82938
0.82611
0.82285
0.8196
0.81636
0.813129
0.809908
0.806695
0.803492
0.800297
0.797111
0.793933
0.790762
0.7876
0.784445
0.781298
0.778157
0.775024
0.771897
0.768777
0.765663
0.762555
0.759453
0.756357
0.753267
0.750182
0.747102
0.744028
0.740958
0.737893
0.734832
0.731776
0.728725
0.725677
0.722633
0.719593
0.716557
0.713524
0.710494
0.707468
0.704445
0.701425
0.698408
0.695393
0.692381
0.689372
0.686365
0.68336
0.680358
0.677357
0.674359
0.671362
0.668368
0.665375
0.662383
0.659393
0.656405
0.653417
0.650432
0.647447
0.644463
0.641481
0.6385
0.635519
0.63254
0.629561
0.626583
0.623606
0.620629
0.617653
0.614677
0.611702
0.608728
0.605753
0.60278
0.599806
0.596833
0.59386
0.590887
0.587914
0.584942
0.581969
0.578997
0.576025
0.573052
0.57008
0.567108
0.564135
0.561163
0.55819
0.555217
0.552244
0.549271
0.546298
0.543324
0.54035
0.537377
0.534402
0.531428
0.528453
0.525478
0.522503
0.519528
0.516552
0.513576
0.510599
0.507622
0.504645
0.501668
0.49869
0.495712
0.492733
0.489755
0.486775
0.483796
0.480816
0.477836
0.474855
0.471874
0.468893
0.465911
0.462929
0.459947
0.456964
0.453981
0.450998
0.448014
0.44503
0.442045
0.43906
0.436075
0.433089
0.430104
0.427117
0.424131
0.421144
0.418157
0.415169
0.412181
0.409193
0.406205
0.403216
0.400227
0.397237
0.394248
0.391258
0.388268
0.385277
0.382286
0.379295
0.376304
0.373312
0.370321
0.367329
0.364336
0.361344
0.358351
0.355358
0.352365
0.349371
0.346377
0.343383
0.340389
0.337395
0.3344
0.331406
0.328411
0.325416
0.322421
0.319425
0.31643
0.313434
0.310438
0.307442
0.304446
0.301449
0.298453
0.295456
0.292459
0.289462
0.286465
0.283468
0.280471
0.277474
0.274476
0.271478
0.268481
0.265483
0.262485
0.259487
0.256489
0.25349
0.250492
0.247494
0.244495
0.241497
0.238498
0.235499
0.2325
0.229502
0.226503
0.223504
0.220505
0.217506
0.214506
0.211507
0.208508
0.205509
0.202509
0.19951
0.196511
0.193511
0.190512
0.187512
0.184513
0.181513
0.178513
0.175514
0.172514
0.169514
0.166514
0.163514
0.160514
0.157514
0.154515
0.151515
0.148515
0.145514
0.142514
0.139514
0.136514
0.133514
0.130514
0.127514
0.124513
0.121513
0.118513
0.115513
0.112513
0.109512
0.106512
0.103512
0.100512
0.0975115
0.0945112
0.0915109
0.0885106
0.0855104
0.0825101
0.0795098
0.0765095
0.0735092
0.0705089
0.0675086
0.0645083
0.061508
0.0585077
0.0555074
0.0525071
0.0495068
0.0465065
0.0435062
0.0405059
0.0375057
0.0345054
0.0315051
0.0285049
0.0255047
0.0225044
0.0195042
0.0165039
0.0135036
0.0105032
0.00750278
0.00450224
0.00150116
1.01313
1.01267
1.01198
1.01119
1.01042
1.00978
1.00935
1.00919
1.00935
1.00983
1.01067
1.01187
1.01342
1.01533
1.01757
1.02014
1.02301
1.02618
1.02962
1.03332
1.03724
1.04137
1.04568
1.05016
1.05478
1.05952
1.06436
1.06928
1.07426
1.07927
1.0843
1.08934
1.09436
1.09935
1.10429
1.10917
1.11397
1.11868
1.1233
1.12779
1.13217
1.13641
1.14051
1.14446
1.14825
1.15188
1.15534
1.15862
1.16172
1.16464
1.16737
1.16992
1.17227
1.17443
1.17639
1.17816
1.17974
1.18113
1.18232
1.18332
1.18413
1.18475
1.18519
1.18545
1.18552
1.18542
1.18515
1.18471
1.1841
1.18333
1.1824
1.18131
1.18008
1.17871
1.17719
1.17553
1.17375
1.17184
1.1698
1.16765
1.16538
1.163
1.16052
1.15794
1.15526
1.15249
1.14964
1.1467
1.14368
1.14058
1.13742
1.13419
1.13089
1.12754
1.12413
1.12066
1.11715
1.11359
1.10999
1.10635
1.10267
1.09896
1.09522
1.09145
1.08765
1.08383
1.07999
1.07613
1.07226
1.06837
1.06446
1.06055
1.05662
1.0527
1.04876
1.04482
1.04088
1.03694
1.03299
1.02905
1.02511
1.02118
1.01725
1.01332
1.0094
1.00549
1.00159
0.997698
0.993814
0.989941
0.986078
0.982226
0.978386
0.974559
0.970744
0.966941
0.963153
0.959377
0.955616
0.951868
0.948135
0.944416
0.940711
0.937021
0.933345
0.929685
0.926038
0.922407
0.91879
0.915188
0.911601
0.908028
0.904469
0.900925
0.897395
0.893879
0.890377
0.886889
0.883415
0.879954
0.876507
0.873073
0.869652
0.866243
0.862848
0.859464
0.856093
0.852735
0.849387
0.846052
0.842728
0.839415
0.836113
0.832822
0.829541
0.82627
0.82301
0.819759
0.816518
0.813287
0.810064
0.806851
0.803646
0.80045
0.797263
0.794083
0.790911
0.787747
0.78459
0.781441
0.778299
0.775163
0.772035
0.768912
0.765796
0.762687
0.759583
0.756485
0.753392
0.750305
0.747223
0.744146
0.741074
0.738007
0.734944
0.731886
0.728832
0.725782
0.722736
0.719693
0.716655
0.71362
0.710588
0.70756
0.704535
0.701512
0.698493
0.695476
0.692462
0.689451
0.686442
0.683435
0.68043
0.677428
0.674428
0.671429
0.668432
0.665437
0.662444
0.659452
0.656462
0.653473
0.650485
0.647499
0.644514
0.64153
0.638547
0.635565
0.632584
0.629603
0.626624
0.623645
0.620667
0.61769
0.614713
0.611736
0.60876
0.605785
0.60281
0.599835
0.596861
0.593887
0.590913
0.587939
0.584965
0.581992
0.579019
0.576045
0.573072
0.570099
0.567125
0.564152
0.561179
0.558205
0.555231
0.552258
0.549284
0.54631
0.543336
0.540361
0.537387
0.534412
0.531437
0.528462
0.525486
0.52251
0.519534
0.516558
0.513581
0.510604
0.507627
0.504649
0.501672
0.498693
0.495715
0.492736
0.489757
0.486777
0.483797
0.480817
0.477837
0.474856
0.471875
0.468893
0.465911
0.462929
0.459946
0.456963
0.45398
0.450996
0.448012
0.445028
0.442043
0.439058
0.436073
0.433087
0.430101
0.427115
0.424128
0.421141
0.418154
0.415166
0.412178
0.40919
0.406201
0.403213
0.400223
0.397234
0.394244
0.391254
0.388264
0.385273
0.382283
0.379291
0.3763
0.373309
0.370317
0.367325
0.364332
0.36134
0.358347
0.355354
0.352361
0.349367
0.346373
0.34338
0.340385
0.337391
0.334397
0.331402
0.328407
0.325412
0.322417
0.319421
0.316426
0.31343
0.310434
0.307438
0.304442
0.301446
0.298449
0.295453
0.292456
0.289459
0.286462
0.283465
0.280468
0.27747
0.274473
0.271475
0.268478
0.26548
0.262482
0.259484
0.256486
0.253488
0.250489
0.247491
0.244493
0.241494
0.238495
0.235497
0.232498
0.229499
0.2265
0.223501
0.220502
0.217503
0.214504
0.211505
0.208506
0.205507
0.202508
0.199508
0.196509
0.193509
0.19051
0.18751
0.184511
0.181511
0.178512
0.175512
0.172512
0.169512
0.166513
0.163513
0.160513
0.157513
0.154513
0.151513
0.148513
0.145513
0.142513
0.139513
0.136513
0.133513
0.130513
0.127513
0.124513
0.121512
0.118512
0.115512
0.112512
0.109512
0.106511
0.103511
0.100511
0.0975109
0.0945106
0.0915104
0.0885101
0.0855099
0.0825096
0.0795093
0.0765091
0.0735088
0.0705085
0.0675083
0.064508
0.0615077
0.0585074
0.0555071
0.0525068
0.0495065
0.0465063
0.043506
0.0405057
0.0375054
0.0345052
0.0315049
0.0285047
0.0255044
0.0225042
0.0195039
0.0165036
0.0135033
0.0105029
0.00750241
0.00450191
0.00150103
1.014
1.01336
1.01267
1.01197
1.01134
1.01085
1.01055
1.01051
1.01075
1.01129
1.01216
1.01335
1.01488
1.01673
1.0189
1.02138
1.02415
1.0272
1.0305
1.03405
1.03782
1.04179
1.04594
1.05025
1.0547
1.05927
1.06393
1.06868
1.07349
1.07834
1.08321
1.08809
1.09296
1.0978
1.1026
1.10735
1.11202
1.11661
1.12111
1.1255
1.12978
1.13393
1.13794
1.14181
1.14553
1.14909
1.15249
1.15572
1.15878
1.16166
1.16436
1.16688
1.16921
1.17135
1.1733
1.17507
1.17665
1.17804
1.17923
1.18025
1.18108
1.18172
1.18218
1.18246
1.18257
1.1825
1.18227
1.18186
1.18129
1.18056
1.17968
1.17864
1.17746
1.17613
1.17467
1.17306
1.17133
1.16947
1.16749
1.16539
1.16318
1.16086
1.15843
1.15591
1.15329
1.15057
1.14777
1.14489
1.14193
1.13889
1.13578
1.1326
1.12936
1.12606
1.1227
1.11929
1.11582
1.11232
1.10876
1.10517
1.10154
1.09787
1.09418
1.09045
1.0867
1.08292
1.07912
1.0753
1.07146
1.06761
1.06374
1.05987
1.05598
1.05208
1.04818
1.04427
1.04036
1.03645
1.03254
1.02862
1.02471
1.02081
1.0169
1.013
1.00911
1.00522
1.00134
0.997466
0.993602
0.989748
0.985904
0.98207
0.978248
0.974437
0.970637
0.96685
0.963076
0.959314
0.955566
0.951831
0.948109
0.944402
0.940708
0.937028
0.933362
0.92971
0.926073
0.92245
0.91884
0.915246
0.911665
0.908098
0.904546
0.901007
0.897482
0.893971
0.890474
0.88699
0.88352
0.880062
0.876618
0.873187
0.869768
0.866363
0.862969
0.859588
0.856218
0.852861
0.849515
0.84618
0.842857
0.839545
0.836243
0.832952
0.829672
0.826401
0.823141
0.81989
0.816648
0.813416
0.810193
0.806979
0.803774
0.800577
0.797388
0.794207
0.791034
0.787869
0.784711