/*--------------------------------*- C++ -*----------------------------------*\
| =========                 |                                                 |
| \\      /  F ield         | OpenFOAM: The Open Source CFD Toolbox           |
|  \\    /   O peration     | Version:  2306                                  |
|   \\  /    A nd           | Website:  www.openfoam.com                      |
|    \\/     M anipulation  |                                                 |
\*---------------------------------------------------------------------------*/
FoamFile
{
    version     2.0;
    format      ascii;
    arch        "LSB;label=32;scalar=64";
    class       volScalarField;
    location    "4.38";
    object      p;
}
// * * * * * * * * * * * * * * * * * * * * * * * * * * * * * * * * * * * * * //

dimensions      [0 2 -2 0 0 0 0];

internalField   nonuniform List<scalar> 
1900
(
0.0563246
0.0321027
0.01171
-0.00363181
-0.0146534
-0.0252112
-0.0356558
-0.0478249
-0.0603853
-0.0744475
0.0270638
0.0188652
0.00754869
-0.00400498
-0.015031
-0.0252209
-0.0356568
-0.0461735
-0.057674
-0.0687309
0.0179709
0.0134802
0.00596444
-0.00340409
-0.0134882
-0.0234677
-0.0332473
-0.0428001
-0.0522275
-0.0613134
0.0122698
0.0091965
0.00354669
-0.00410167
-0.0129532
-0.0221934
-0.0313843
-0.040298
-0.0488907
-0.0570499
0.0100457
0.00751034
0.00277176
-0.00387616
-0.0118546
-0.0204577
-0.0291318
-0.0375544
-0.0455758
-0.0531069
0.0106799
0.00819918
0.00358858
-0.00287626
-0.0106144
-0.0189176
-0.0272267
-0.0352247
-0.0427873
-0.0498857
0.0141354
0.0111895
0.00590855
-0.00117421
-0.00923388
-0.01752
-0.0255667
-0.0331968
-0.0404019
-0.047217
0.0208344
0.016539
0.00964161
0.00117326
-0.00764592
-0.0160692
-0.023901
-0.0312347
-0.03822
-0.0449188
0.0309752
0.0228762
0.0124407
0.00198054
-0.00732533
-0.0154355
-0.0228022
-0.0298483
-0.0367371
-0.0434285
0.0598254
0.0371532
0.017447
0.0033852
-0.00627081
-0.0139641
-0.0211908
-0.028406
-0.0355594
-0.0424457
-0.0976559
-0.0976893
-0.0977342
-0.0977884
-0.0978487
-0.0979149
-0.0979864
-0.0980622
-0.098141
-0.0982212
-0.0983012
-0.0983793
-0.0984537
-0.0985228
-0.0985849
-0.0986384
-0.0986817
-0.0987134
-0.0987323
-0.0987372
-0.0987271
-0.0987011
-0.0986586
-0.0985989
-0.0985217
-0.0984267
-0.0983135
-0.0981821
-0.0980323
-0.097864
-0.097677
-0.0974713
-0.0972466
-0.0970029
-0.0967398
-0.0964568
-0.0961523
-0.0958231
-0.0954637
-0.0950646
-0.0946115
-0.0940843
-0.0934565
-0.0926956
-0.0917644
-0.090622
-0.0892239
-0.087521
-0.0854571
-0.0829682
-0.0799845
-0.0764334
-0.0722436
-0.067356
-0.0617363
-0.0553797
-0.0483267
-0.0406437
-0.032425
-0.0237984
-0.0149167
-0.00595346
0.00291728
0.0115184
0.0196822
0.0272592
0.0341171
0.0401589
0.045308
0.0495282
0.0527977
0.055134
0.0565601
0.0571345
0.0569099
0.0559693
0.0543765
0.052222
0.0495666
0.0464984
0.0430637
0.0393407
0.0353541
0.0311713
0.0267895
0.0222713
0.0175777
0.0127819
0.00778173
0.00271236
-0.0976514
-0.0976831
-0.0977101
-0.0977517
-0.0978029
-0.0978624
-0.0979287
-0.0980001
-0.0980749
-0.0981518
-0.0982289
-0.0983046
-0.0983771
-0.0984446
-0.0985055
-0.098558
-0.0986006
-0.0986319
-0.0986504
-0.098655
-0.0986446
-0.0986182
-0.098575
-0.0985145
-0.0984361
-0.0983393
-0.098224
-0.0980897
-0.0979363
-0.0977634
-0.097571
-0.0973584
-0.0971253
-0.0968709
-0.0965945
-0.0962948
-0.0959698
-0.0956164
-0.0952295
-0.0948011
-0.09432
-0.0937708
-0.0931332
-0.0923818
-0.0914853
-0.0904067
-0.089103
-0.087523
-0.0856046
-0.0832717
-0.0804386
-0.0770184
-0.0729315
-0.0681329
-0.0626149
-0.0563639
-0.049389
-0.041752
-0.0335545
-0.0249308
-0.0160348
-0.0070457
0.00185849
0.0104952
0.0186894
0.026302
0.0331854
0.0392486
0.0444138
0.0486509
0.0519344
0.054285
0.0557228
0.056312
0.0561008
0.0551792
0.0536056
0.05148
0.0488532
0.0458235
0.0424239
0.0387478
0.0348023
0.030675
0.0263412
0.0218847
0.0172421
0.0125072
0.00758463
0.00261026
-0.0975338
-0.0976151
-0.0976606
-0.0977142
-0.0977704
-0.0978319
-0.0978998
-0.0979731
-0.0980502
-0.0981297
-0.0982099
-0.0982888
-0.0983647
-0.0984356
-0.0984999
-0.0985558
-0.0986017
-0.0986359
-0.0986571
-0.0986639
-0.0986552
-0.09863
-0.0985876
-0.0985272
-0.0984485
-0.098351
-0.0982345
-0.098099
-0.0979443
-0.0977704
-0.0975772
-0.0973643
-0.0971312
-0.0968769
-0.0966002
-0.0962997
-0.095973
-0.0956167
-0.0952261
-0.0947948
-0.0943147
-0.0937758
-0.0931646
-0.0924631
-0.0916461
-0.0906783
-0.0895128
-0.0880917
-0.0863416
-0.0841715
-0.0814838
-0.0782202
-0.0742802
-0.0695858
-0.064097
-0.0578326
-0.0508301
-0.0431662
-0.0349413
-0.0262906
-0.0173664
-0.00837469
0.000517513
0.00914144
0.0173183
0.0249071
0.0317645
0.0378013
0.0429369
0.0471442
0.0503984
0.0527254
0.0541446
0.0547258
0.0545153
0.0536081
0.0520589
0.0499719
0.0473941
0.0444281
0.0411033
0.0375156
0.0336702
0.0296546
0.0254459
0.0211246
0.016639
0.0120708
0.00734581
0.00255768
-0.0976159
-0.0976896
-0.0976939
-0.0977198
-0.0977655
-0.0978277
-0.0979011
-0.0979818
-0.0980673
-0.0981554
-0.098244
-0.0983309
-0.0984141
-0.0984917
-0.0985619
-0.0986229
-0.0986729
-0.0987104
-0.098734
-0.0987424
-0.0987345
-0.0987093
-0.098666
-0.0986041
-0.0985231
-0.0984226
-0.0983027
-0.0981633
-0.0980047
-0.0978269
-0.0976301
-0.0974141
-0.0971783
-0.0969213
-0.0966417
-0.0963378
-0.0960079
-0.0956495
-0.0952596
-0.0948336
-0.0943653
-0.0938471
-0.0932717
-0.0926258
-0.0918856
-0.0910134
-0.0899552
-0.0886492
-0.0870201
-0.0849719
-0.0823957
-0.0791844
-0.0752835
-0.0706244
-0.0651758
-0.0589491
-0.0519825
-0.0443589
-0.0361864
-0.0276042
-0.0187764
-0.00988777
-0.00111985
0.00735947
0.0153778
0.0227965
0.0294832
0.0353527
0.0403304
0.0443923
0.0475194
0.0497415
0.0510829
0.0516147
0.0513865
0.0504921
0.0489883
0.0469757
0.0445035
0.0416688
0.0385042
0.0350974
0.0314594
0.0276672
0.0237086
0.0196513
0.0154605
0.0111987
0.0068095
0.00235562
-0.0972895
-0.0974949
-0.0975858
-0.09769
-0.0977887
-0.0978821
-0.0979748
-0.0980701
-0.0981677
-0.0982661
-0.0983632
-0.0984574
-0.0985466
-0.0986289
-0.0987025
-0.0987657
-0.098817
-0.0988547
-0.0988775
-0.0988839
-0.098873
-0.0988439
-0.098796
-0.0987289
-0.0986422
-0.0985358
-0.0984098
-0.0982647
-0.0981008
-0.0979187
-0.0977186
-0.0975005
-0.0972637
-0.0970063
-0.096726
-0.0964221
-0.0960931
-0.0957368
-0.0953512
-0.0949329
-0.0944765
-0.0939745
-0.0934251
-0.0928148
-0.0921177
-0.0912944
-0.0902816
-0.0890087
-0.0873918
-0.0853468
-0.0827688
-0.0795676
-0.0756687
-0.0710207
-0.0655988
-0.0594196
-0.0525301
-0.0450169
-0.0369939
-0.0286038
-0.0200094
-0.0113865
-0.00291476
0.00524065
0.0129201
0.0199916
0.0263372
0.0318784
0.0365528
0.0403416
0.0432365
0.0452701
0.046475
0.0469207
0.0466626
0.0457887
0.0443599
0.0424677
0.0401656
0.0375388
0.0346256
0.0315001
0.0281813
0.0247314
0.0211502
0.0174891
0.0137297
0.00991622
0.00601445
0.0020699
-0.0981213
-0.0981439
-0.0980428
-0.0979979
-0.0980086
-0.0980665
-0.0981545
-0.0982556
-0.0983588
-0.0984607
-0.0985594
-0.098653
-0.0987399
-0.0988185
-0.0988873
-0.0989448
-0.0989897
-0.0990207
-0.0990361
-0.099035
-0.0990162
-0.0989792
-0.0989234
-0.0988488
-0.0987551
-0.0986421
-0.0985098
-0.0983592
-0.0981909
-0.0980053
-0.0978028
-0.0975833
-0.0973458
-0.0970881
-0.0968069
-0.0965057
-0.0961812
-0.0958305
-0.095451
-0.0950399
-0.0945926
-0.0940988
-0.0935433
-0.0929172
-0.0921944
-0.0913326
-0.0902713
-0.0889409
-0.0872584
-0.0851379
-0.0824854
-0.0792189
-0.0752724
-0.070607
-0.0652091
-0.0591022
-0.0523418
-0.0450199
-0.0372546
-0.0291898
-0.020984
-0.0128049
-0.00481892
0.00281833
0.00996479
0.0165008
0.0223271
0.027376
0.0316025
0.0349952
0.0375597
0.0393315
0.0403529
0.0406899
0.0404032
0.0395724
0.038261
0.0365482
0.03449
0.0321572
0.0295915
0.0268517
0.023963
0.0209717
0.017887
0.0147444
0.011539
0.00829972
0.00501138
0.00170324
-0.0967943
-0.0974411
-0.0976441
-0.0979008
-0.0981164
-0.0982796
-0.098402
-0.0985031
-0.0985961
-0.0986844
-0.0987686
-0.0988472
-0.0989191
-0.098983
-0.0990376
-0.0990816
-0.0991141
-0.0991337
-0.0991388
-0.099128
-0.0991005
-0.0990554
-0.0989924
-0.0989112
-0.0988114
-0.0986926
-0.0985553
-0.0984014
-0.0982308
-0.0980438
-0.0978405
-0.0976208
-0.0973838
-0.0971274
-0.0968463
-0.0965357
-0.0961989
-0.0958339
-0.0954358
-0.0949993
-0.0945173
-0.0939802
-0.0933738
-0.09268
-0.0918684
-0.0908962
-0.0897048
-0.0882262
-0.0863827
-0.0840961
-0.0812878
-0.077891
-0.0738542
-0.0691523
-0.0637852
-0.0577873
-0.0512227
-0.0441886
-0.0368047
-0.0292121
-0.0215614
-0.0140083
-0.0067007
0.000224702
0.00664985
0.0124745
0.0176225
0.0220422
0.0257081
0.028619
0.0307941
0.0322711
0.0330991
0.0333386
0.0330524
0.0323085
0.0311699
0.0297018
0.027959
0.0259968
0.0238577
0.0215848
0.0192068
0.0167551
0.0142456
0.0116996
0.00912245
0.0065293
0.00391957
0.00130907
-0.101507
-0.100128
-0.0994994
-0.0990661
-0.0988396
-0.0987504
-0.0987386
-0.0987632
-0.0988022
-0.098848
-0.0988975
-0.0989473
-0.0989954
-0.0990398
-0.0990788
-0.0991102
-0.0991326
-0.0991432
-0.0991396
-0.0991211
-0.0990875
-0.0990378
-0.098972
-0.0988893
-0.0987887
-0.098669
-0.0985283
-0.0983669
-0.0981876
-0.0979903
-0.0977741
-0.0975375
-0.0972784
-0.0969941
-0.0966809
-0.0963357
-0.0959562
-0.0955385
-0.0950765
-0.0945631
-0.0939884
-0.0933403
-0.0926013
-0.0917486
-0.0907503
-0.089565
-0.0881393
-0.0864122
-0.084317
-0.0817884
-0.0787654
-0.0752012
-0.0710634
-0.0663434
-0.0610562
-0.0552468
-0.0489853
-0.0423697
-0.0355152
-0.0285549
-0.0216247
-0.0148629
-0.00839538
-0.002335
0.00322969
0.00822355
0.0125964
0.0163158
0.019375
0.021782
0.0235656
0.0247628
0.0254244
0.0256025
0.0253571
0.0247437
0.0238216
0.0226412
0.0212542
0.019701
0.0180227
0.0162481
0.0144077
0.0125193
0.0106039
0.00867029
0.0067324
0.0047925
0.00285983
0.000934018
-0.095665
-0.0967525
-0.0975902
-0.0982022
-0.0985191
-0.0986378
-0.0986724
-0.098686
-0.0987019
-0.0987322
-0.0987715
-0.0988123
-0.098853
-0.098892
-0.0989274
-0.0989571
-0.0989801
-0.0989961
-0.0990004
-0.0989874
-0.0989552
-0.0989037
-0.0988323
-0.0987415
-0.0986303
-0.0984962
-0.0983371
-0.0981525
-0.0979427
-0.0977072
-0.0974445
-0.0971524
-0.0968282
-0.0964682
-0.0960681
-0.0956232
-0.0951285
-0.0945783
-0.0939656
-0.0932813
-0.092514
-0.091649
-0.0906677
-0.0895476
-0.0882591
-0.0867654
-0.0850228
-0.0829825
-0.0805935
-0.0778075
-0.0745818
-0.0708849
-0.0667027
-0.062044
-0.0569387
-0.0514407
-0.0456232
-0.0395797
-0.0334151
-0.0272451
-0.0211829
-0.0153404
-0.00981467
-0.00469349
-4.0697e-05
0.00409346
0.0076835
0.010714
0.0131921
0.0151309
0.0165634
0.017522
0.0180552
0.0182048
0.0180258
0.0175612
0.0168657
0.0159766
0.0149422
0.0137894
0.0125578
0.011263
0.00993706
0.00858473
0.00723229
0.00587565
0.00453758
0.00320708
0.00190497
0.000613006
-0.118342
-0.103423
-0.101496
-0.10002
-0.0991051
-0.0986767
-0.0985021
-0.09844
-0.0984212
-0.0984248
-0.0984635
-0.0985256
-0.0985906
-0.0986513
-0.098706
-0.0987533
-0.0987903
-0.0988134
-0.0988176
-0.0987977
-0.0987508
-0.0986758
-0.0985731
-0.0984434
-0.0982849
-0.0980945
-0.0978691
-0.0976065
-0.0973051
-0.0969635
-0.0965798
-0.0961519
-0.0956769
-0.095151
-0.0945696
-0.0939276
-0.0932194
-0.092439
-0.091579
-0.0906305
-0.0895824
-0.0884206
-0.0871271
-0.0856791
-0.0840505
-0.0822124
-0.0801327
-0.0777776
-0.0751139
-0.0721122
-0.0687502
-0.0650171
-0.060916
-0.0564677
-0.0517085
-0.0466917
-0.0414835
-0.0361641
-0.03082
-0.0255444
-0.0204254
-0.0155479
-0.010982
-0.00679095
-0.00301789
0.000306788
0.00317473
0.00558139
0.00754071
0.00906685
0.0101929
0.0109468
0.0113733
0.0115054
0.0113928
0.0110683
0.010582
0.00996032
0.00924859
0.00846207
0.00763938
0.00678332
0.00592753
0.00506328
0.0042224
0.00338602
0.00258758
0.00179901
0.00105718
0.000320836
-0.0859011
-0.092357
-0.0948647
-0.095708
-0.0961558
-0.0965577
-0.0969295
-0.097242
-0.0975123
-0.0977477
-0.0979503
-0.0981226
-0.0982676
-0.098389
-0.0984893
-0.098568
-0.0986218
-0.0986461
-0.0986358
-0.0985863
-0.0984945
-0.0983586
-0.098178
-0.0979524
-0.0976807
-0.097361
-0.0969911
-0.0965694
-0.0960944
-0.0955648
-0.0949785
-0.0943322
-0.0936223
-0.0928454
-0.0919979
-0.0910755
-0.0900734
-0.0889862
-0.0878074
-0.0865293
-0.0851426
-0.083636
-0.0819957
-0.080206
-0.0782493
-0.0761069
-0.073759
-0.071186
-0.0683702
-0.0652981
-0.0619623
-0.0583643
-0.0545157
-0.0504399
-0.0461712
-0.0417552
-0.0372455
-0.0327056
-0.0282039
-0.0238121
-0.0195983
-0.0156265
-0.0119486
-0.0086064
-0.00562445
-0.00301829
-0.000787586
0.00107016
0.00257135
0.00373159
0.00458278
0.00515129
0.00547839
0.00559253
0.00553778
0.00533953
0.00504152
0.00466188
0.00424118
0.003786
0.00333225
0.00287234
0.00243949
0.00201197
0.0016257
0.00124591
0.000917386
0.00059031
0.000321344
4.00249e-05
-0.0799727
-0.0877487
-0.0917304
-0.0931553
-0.0935903
-0.0939282
-0.094427
-0.0950437
-0.0956647
-0.0962156
-0.0966731
-0.0970458
-0.0973517
-0.0976054
-0.0978139
-0.0979774
-0.0980918
-0.098151
-0.0981488
-0.0980803
-0.0979421
-0.0977324
-0.0974508
-0.0970975
-0.0966731
-0.0961781
-0.0956126
-0.0949768
-0.0942709
-0.0934945
-0.0926471
-0.0917274
-0.0907338
-0.0896643
-0.088517
-0.087289
-0.0859772
-0.0845777
-0.0830861
-0.0814972
-0.0798049
-0.0780021
-0.0760808
-0.0740321
-0.0718461
-0.0695127
-0.067021
-0.0643609
-0.0615245
-0.0585075
-0.0553106
-0.0519405
-0.0484116
-0.0447466
-0.040977
-0.0371433
-0.0332926
-0.0294755
-0.0257437
-0.0221497
-0.0187435
-0.0155703
-0.0126661
-0.0100579
-0.00776064
-0.00578119
-0.00411266
-0.00274218
-0.00164883
-0.000813065
-0.000205347
0.000200968
0.000443515
0.000550842
0.00056098
0.000494861
0.000385182
0.000242769
9.77335e-05
-4.87518e-05
-0.000168373
-0.000273976
-0.000337882
-0.000389045
-0.000393407
-0.000396411
-0.000346418
-0.000312216
-0.000217301
-0.000166036
-0.0697756
-0.0769639
-0.0823074
-0.0857974
-0.0879422
-0.0893995
-0.0906176
-0.0917755
-0.0928857
-0.0939029
-0.0947891
-0.0955346
-0.0961497
-0.0966515
-0.0970533
-0.0973617
-0.0975773
-0.097697
-0.0977171
-0.0976344
-0.0974472
-0.0971555
-0.0967608
-0.0962654
-0.0956726
-0.0949857
-0.0942077
-0.0933418
-0.0923904
-0.0913557
-0.0902395
-0.0890428
-0.087766
-0.0864089
-0.0849708
-0.0834503
-0.081846
-0.0801556
-0.078377
-0.0765074
-0.074544
-0.0724838
-0.0703235
-0.06806
-0.06569
-0.0632106
-0.0606193
-0.0579146
-0.0550963
-0.0521661
-0.0491288
-0.0459929
-0.0427722
-0.0394873
-0.0361665
-0.0328466
-0.0295699
-0.0263811
-0.023323
-0.0204335
-0.017743
-0.0152743
-0.0130448
-0.0110695
-0.00936029
-0.00792131
-0.00673978
-0.00578852
-0.00503475
-0.00445146
-0.00401379
-0.00370003
-0.00348048
-0.00332659
-0.00320698
-0.00310462
-0.00300258
-0.00289902
-0.00278129
-0.00265222
-0.00249645
-0.00232437
-0.00211823
-0.00190067
-0.001645
-0.00139097
-0.00109375
-0.000823298
-0.000498062
-0.000245571
-0.0645635
-0.0711872
-0.0766623
-0.0808839
-0.0839758
-0.0862481
-0.0880419
-0.0895958
-0.0910179
-0.0923256
-0.0934988
-0.0945172
-0.0953742
-0.0960755
-0.0966313
-0.0970497
-0.0973345
-0.0974856
-0.0975013
-0.0973801
-0.0971219
-0.0967285
-0.0962034
-0.0955514
-0.0947781
-0.0938896
-0.0928918
-0.0917902
-0.0905903
-0.0892969
-0.0879138
-0.0864443
-0.0848905
-0.0832537
-0.0815344
-0.0797327
-0.0778485
-0.0758815
-0.0738315
-0.0716987
-0.0694833
-0.0671862
-0.0648086
-0.0623526
-0.0598211
-0.0572178
-0.0545474
-0.0518155
-0.0490283
-0.0461926
-0.0433159
-0.0404075
-0.037479
-0.0345467
-0.0316336
-0.0287718
-0.0260017
-0.0233684
-0.0209129
-0.018663
-0.0166267
-0.0147956
-0.0131573
-0.0117119
-0.0104739
-0.00945441
-0.0086406
-0.0079927
-0.00745815
-0.00699945
-0.00660195
-0.00626301
-0.00597293
-0.00571293
-0.00545817
-0.00519169
-0.0049028
-0.00459361
-0.0042667
-0.00393169
-0.00358797
-0.00324219
-0.00288606
-0.00252813
-0.00215379
-0.00178221
-0.0013872
-0.00101295
-0.000601165
-0.000258616
-0.0600647
-0.0663415
-0.0718095
-0.0763732
-0.0800397
-0.0829422
-0.0852907
-0.087285
-0.0890577
-0.0906673
-0.0921213
-0.0934064
-0.0945091
-0.0954242
-0.0961539
-0.0967032
-0.097076
-0.097274
-0.0972975
-0.097147
-0.0968247
-0.096335
-0.0956844
-0.0948804
-0.0939315
-0.0928463
-0.0916333
-0.0903009
-0.0888575
-0.0873107
-0.0856672
-0.0839323
-0.08211
-0.0802031
-0.0782135
-0.0761426
-0.0739917
-0.0717624
-0.0694568
-0.0670777
-0.0646289
-0.0621151
-0.0595421
-0.0569168
-0.0542474
-0.0515438
-0.0488174
-0.046081
-0.0433474
-0.0406287
-0.0379349
-0.0352748
-0.032657
-0.0300908
-0.0275892
-0.0251718
-0.0228718
-0.0207361
-0.0188107
-0.0171218
-0.015655
-0.0143619
-0.013193
-0.0121326
-0.0111998
-0.0104193
-0.00979364
-0.00928536
-0.00882999
-0.00837687
-0.00791391
-0.00745677
-0.00702307
-0.00661879
-0.00623707
-0.00586768
-0.00549891
-0.00512314
-0.00473639
-0.00434147
-0.00393989
-0.00353632
-0.00312879
-0.00272093
-0.00230703
-0.00189405
-0.00147173
-0.00105964
-0.000630679
-0.000251603
-0.0565004
-0.0625769
-0.0680289
-0.0727789
-0.0768035
-0.0801568
-0.0829602
-0.0853592
-0.0874743
-0.0893773
-0.0910941
-0.0926223
-0.093949
-0.095063
-0.0959586
-0.096635
-0.0970932
-0.0973345
-0.0973597
-0.0971711
-0.0967734
-0.0961745
-0.0953853
-0.0944179
-0.0932841
-0.091995
-0.090562
-0.088996
-0.0873083
-0.085509
-0.0836074
-0.0816113
-0.0795267
-0.0773584
-0.0751097
-0.0727837
-0.0703833
-0.067912
-0.0653741
-0.0627755
-0.0601239
-0.0574283
-0.0546997
-0.0519497
-0.049191
-0.0464375
-0.0437062
-0.0410172
-0.0383904
-0.0358413
-0.0333797
-0.0310101
-0.0287354
-0.0265576
-0.0244775
-0.0224937
-0.0206205
-0.0188974
-0.017373
-0.0160835
-0.0150067
-0.0140697
-0.0132031
-0.0123783
-0.0116033
-0.0108893
-0.0102567
-0.00971254
-0.00922604
-0.00876089
-0.00830822
-0.00786696
-0.00742751
-0.00698629
-0.00654274
-0.00609744
-0.00565277
-0.0052135
-0.00478293
-0.00436204
-0.00394783
-0.0035395
-0.00313344
-0.00272772
-0.00231805
-0.00190548
-0.00148631
-0.00106754
-0.000643454
-0.000255377
-0.0536403
-0.0596163
-0.0650637
-0.0699168
-0.074155
-0.077811
-0.0809616
-0.0837056
-0.0861362
-0.0883197
-0.0902888
-0.0920486
-0.0935889
-0.0948948
-0.0959543
-0.0967597
-0.0973072
-0.0975952
-0.0976242
-0.0973972
-0.0969208
-0.0962066
-0.0952716
-0.0941343
-0.0928112
-0.0913173
-0.0896665
-0.087873
-0.0859504
-0.083912
-0.0817697
-0.0795337
-0.0772124
-0.0748125
-0.0723394
-0.0697978
-0.0671927
-0.0645294
-0.0618147
-0.0590575
-0.0562691
-0.0534634
-0.0506569
-0.0478669
-0.0451098
-0.0423988
-0.0397519
-0.0371937
-0.0347465
-0.0324234
-0.0302272
-0.0281524
-0.0261921
-0.0243444
-0.0226075
-0.0209824
-0.0194647
-0.0180683
-0.0168212
-0.0157283
-0.0147738
-0.0139312
-0.0131702
-0.0124724
-0.0118358
-0.0112716
-0.010731
-0.0101651
-0.00956358
-0.00895584
-0.00837495
-0.00783755
-0.0073469
-0.00689709
-0.00647074
-0.00605311
-0.00563642
-0.00521849
-0.00479976
-0.00438229
-0.00396812
-0.00355711
-0.00314753
-0.00273798
-0.00232636
-0.00191178
-0.0014927
-0.00107277
-0.0006574
-0.000252058
-0.0512916
-0.0572473
-0.0627023
-0.0676125
-0.0719781
-0.0758371
-0.0792496
-0.0822833
-0.085002
-0.0874557
-0.0896736
-0.091663
-0.0934149
-0.0949125
-0.0961382
-0.0970772
-0.0977197
-0.0980605
-0.0980989
-0.0978388
-0.0972891
-0.0964644
-0.0953875
-0.0940836
-0.0925764
-0.0908873
-0.0890364
-0.0870421
-0.0849219
-0.0826913
-0.0803641
-0.077952
-0.0754645
-0.0729093
-0.0702931
-0.0676217
-0.0649012
-0.0621384
-0.0593415
-0.056521
-0.0536901
-0.0508652
-0.0480661
-0.0453151
-0.0426329
-0.0400337
-0.0375399
-0.0351717
-0.0329404
-0.0308452
-0.0288768
-0.0270181
-0.0252497
-0.0235661
-0.0219833
-0.0205311
-0.0192437
-0.0181373
-0.0171928
-0.0163363
-0.0154661
-0.014544
-0.0135903
-0.0126721
-0.0118644
-0.0111663
-0.0105621
-0.0100127
-0.00947495
-0.00894156
-0.00841725
-0.00791124
-0.00743327
-0.00697697
-0.00653369
-0.00609739
-0.00566539
-0.00523758
-0.00481445
-0.00439517
-0.0039793
-0.00356624
-0.00315474
-0.00274351
-0.00233112
-0.00191644
-0.00149866
-0.00108153
-0.000671596
-0.000250522
-0.0497942
-0.0557192
-0.0611439
-0.0660601
-0.0704922
-0.0744815
-0.0780774
-0.0813288
-0.084278
-0.0869592
-0.0893926
-0.0915822
-0.0935186
-0.0951835
-0.096555
-0.0976126
-0.0983403
-0.098728
-0.0987734
-0.098482
-0.0978672
-0.0969488
-0.0957495
-0.0942962
-0.0926207
-0.0907555
-0.0887305
-0.0865721
-0.0843025
-0.08194
-0.0794995
-0.0769925
-0.0744279
-0.0718127
-0.0691525
-0.0664525
-0.0637177
-0.0609542
-0.0581693
-0.0553726
-0.0525765
-0.0497967
-0.0470529
-0.0443696
-0.0417746
-0.0393012
-0.0369763
-0.0348149
-0.0328174
-0.030966
-0.0292286
-0.0275664
-0.0259305
-0.024296
-0.0226683
-0.0210854
-0.0196039
-0.0182827
-0.0171373
-0.0161307
-0.0152197
-0.0143526
-0.0135198
-0.0127276
-0.0119925
-0.0113304
-0.0107215
-0.0101395
-0.00956879
-0.00900901
-0.00846821
-0.00795312
-0.00746441
-0.00699868
-0.00654973
-0.00611147
-0.00567975
-0.00525252
-0.00482911
-0.00440927
-0.00399253
-0.00357815
-0.00316512
-0.00275249
-0.00233937
-0.00192485
-0.00150854
-0.00109334
-0.000682468
-0.000251693
-0.0488992
-0.0548441
-0.0602719
-0.0652091
-0.0696956
-0.0737746
-0.0774901
-0.0808858
-0.0839986
-0.0868509
-0.0894505
-0.0917935
-0.093866
-0.0956482
-0.0971176
-0.0982534
-0.0990388
-0.0994641
-0.0995277
-0.0992366
-0.0986071
-0.0976624
-0.0964317
-0.0949468
-0.093241
-0.0913467
-0.0892945
-0.0871115
-0.0848212
-0.0824429
-0.0799918
-0.07748
-0.0749164
-0.072308
-0.0696602
-0.0669778
-0.0642653
-0.0615278
-0.0587717
-0.056005
-0.0532381
-0.0504846
-0.0477611
-0.0450879
-0.0424882
-0.0399857
-0.0376017
-0.0353511
-0.0332385
-0.0312584
-0.0293986
-0.0276376
-0.025919
-0.0242492
-0.0226357
-0.021109
-0.0197091
-0.0184607
-0.0173646
-0.0163773
-0.0154438
-0.0145345
-0.0136508
-0.0128158
-0.0120537
-0.011366
-0.010739
-0.0101473
-0.00957585
-0.00902187
-0.00848863
-0.00797955
-0.00749416
-0.00702842
-0.00657703
-0.0061356
-0.00570135
-0.00527274
-0.00484889
-0.00442901
-0.00401231
-0.00359783
-0.00318457
-0.00277165
-0.00235843
-0.00194451
-0.00152964
-0.00111427
-0.000697403
-0.000258389
)
;

boundaryField
{
    fixedWalls
    {
        type            zeroGradient;
    }
    inflowWall
    {
        type            zeroGradient;
    }
    outflowWall
    {
        type            fixedValue;
        value           uniform 0;
    }
    frontAndBack
    {
        type            empty;
    }
}


// ************************************************************************* //
