/*--------------------------------*- C++ -*----------------------------------*\
| =========                 |                                                 |
| \\      /  F ield         | OpenFOAM: The Open Source CFD Toolbox           |
|  \\    /   O peration     | Version:  2306                                  |
|   \\  /    A nd           | Website:  www.openfoam.com                      |
|    \\/     M anipulation  |                                                 |
\*---------------------------------------------------------------------------*/
FoamFile
{
    version     2.0;
    format      ascii;
    arch        "LSB;label=32;scalar=64";
    class       surfaceScalarField;
    location    "4.38";
    object      phi;
}
// * * * * * * * * * * * * * * * * * * * * * * * * * * * * * * * * * * * * * //

dimensions      [0 3 -1 0 0 0 0];

oriented        oriented;

internalField   nonuniform List<scalar> 
3680
(
4.93469e-05
6.53057e-07
4.79741e-05
1.37282e-06
4.66977e-05
1.27637e-06
4.52607e-05
1.43708e-06
4.41226e-05
1.13803e-06
4.27189e-05
1.40377e-06
4.17348e-05
9.84029e-07
4.04335e-05
1.30136e-06
3.98016e-05
6.31839e-07
9.86545e-07
3.88151e-05
5.03392e-05
3.13842e-07
5.08678e-05
8.44227e-07
5.11321e-05
1.0121e-06
5.14651e-05
1.10402e-06
5.15926e-05
1.01054e-06
5.19757e-05
1.02074e-06
5.20608e-05
8.98857e-07
5.25122e-05
8.49979e-07
5.25064e-05
6.37687e-07
4.31424e-07
5.30615e-05
5.01633e-05
1.50557e-07
5.05554e-05
4.52154e-07
5.09759e-05
5.91577e-07
5.14195e-05
6.60441e-07
5.18165e-05
6.13456e-07
5.22675e-05
5.69772e-07
5.26946e-05
4.71799e-07
5.31635e-05
3.81026e-07
5.35804e-05
2.20821e-07
1.13496e-08
5.40005e-05
5.00932e-05
5.73378e-08
5.03764e-05
1.6902e-07
5.0734e-05
2.33937e-07
5.1146e-05
2.48424e-07
5.15495e-05
2.09919e-07
5.1972e-05
1.47332e-07
5.2383e-05
6.07971e-08
5.28116e-05
-4.75975e-08
5.32218e-05
-1.89403e-07
-3.5925e-07
5.35924e-05
5.00738e-05
-1.64524e-08
5.02912e-05
-4.84274e-08
5.0611e-05
-8.58523e-08
5.09886e-05
-1.29158e-07
5.13801e-05
-1.81557e-07
5.17741e-05
-2.46636e-07
5.21648e-05
-3.29976e-07
5.2551e-05
-4.33771e-07
5.29205e-05
-5.58901e-07
-7.04988e-07
5.32662e-05
5.00732e-05
-8.96144e-08
5.02829e-05
-2.58162e-07
5.05977e-05
-4.00654e-07
5.09651e-05
-4.96595e-07
5.13442e-05
-5.60598e-07
5.17213e-05
-6.23743e-07
5.2091e-05
-6.99672e-07
5.24519e-05
-7.94646e-07
5.28012e-05
-9.08294e-07
-1.03634e-06
5.31326e-05
5.00942e-05
-1.83807e-07
5.03555e-05
-5.1951e-07
5.06982e-05
-7.43269e-07
5.1068e-05
-8.66482e-07
5.14403e-05
-9.32897e-07
5.1804e-05
-9.87424e-07
5.21606e-05
-1.05624e-06
5.25117e-05
-1.14578e-06
5.28523e-05
-1.24887e-06
-1.35738e-06
5.31733e-05
5.01665e-05
-3.50274e-07
5.0518e-05
-8.7103e-07
5.09207e-05
-1.14599e-06
5.12994e-05
-1.2452e-06
5.16481e-05
-1.28162e-06
5.19854e-05
-1.32468e-06
5.23191e-05
-1.38993e-06
5.26402e-05
-1.46694e-06
5.29351e-05
-1.54369e-06
-1.61472e-06
5.31924e-05
5.03676e-05
-7.1788e-07
5.08004e-05
-1.3038e-06
5.1099e-05
-1.44465e-06
5.12765e-05
-1.42263e-06
5.14049e-05
-1.4101e-06
5.15035e-05
-1.42326e-06
5.15548e-05
-1.44118e-06
5.1542e-05
-1.45419e-06
5.1457e-05
-1.45865e-06
-1.45789e-06
5.13002e-05
4.92821e-05
4.79783e-05
4.65337e-05
4.5111e-05
4.37009e-05
4.22777e-05
4.08365e-05
3.93823e-05
3.79237e-05
3.64658e-05
1.44092e-08
-1.44092e-08
1.09958e-08
3.41329e-09
-7.48822e-09
1.8484e-08
-3.56674e-08
2.81792e-08
-7.07884e-08
3.51211e-08
-1.11548e-07
4.07595e-08
-1.57538e-07
4.59902e-08
-2.08497e-07
5.09586e-08
-2.64128e-07
5.56317e-08
-3.24101e-07
5.99726e-08
-3.88056e-07
6.39553e-08
-4.55625e-07
6.75691e-08
-5.26441e-07
7.0816e-08
-6.00147e-07
7.37061e-08
-6.76403e-07
7.62553e-08
-7.54887e-07
7.84848e-08
-8.35307e-07
8.04197e-08
-9.17395e-07
8.20881e-08
-1.00092e-06
8.35216e-08
-1.08568e-06
8.47638e-08
-1.17155e-06
8.58694e-08
-1.25845e-06
8.69007e-08
-1.34637e-06
8.79242e-08
-1.43538e-06
8.90099e-08
-1.52562e-06
9.02317e-08
-1.61728e-06
9.16681e-08
-1.71068e-06
9.33973e-08
-1.80617e-06
9.54902e-08
-1.90418e-06
9.8006e-08
-2.00517e-06
1.00993e-07
-2.10966e-06
1.04492e-07
-2.21821e-06
1.08551e-07
-2.33148e-06
1.1327e-07
-2.45034e-06
1.1886e-07
-2.57604e-06
1.25699e-07
-2.71039e-06
1.34344e-07
-2.85595e-06
1.45566e-07
-3.01632e-06
1.60367e-07
-3.19623e-06
1.7991e-07
-3.40164e-06
2.05414e-07
-3.63957e-06
2.37927e-07
-3.91749e-06
2.77922e-07
-4.24228e-06
3.24793e-07
-4.6188e-06
3.76511e-07
-5.04828e-06
4.29485e-07
-5.52709e-06
4.78808e-07
-6.04602e-06
5.18932e-07
-6.59044e-06
5.44422e-07
-7.14097e-06
5.50529e-07
-7.67513e-06
5.34157e-07
-8.16995e-06
4.94825e-07
-8.60396e-06
4.34008e-07
-8.95686e-06
3.52899e-07
-9.21121e-06
2.54345e-07
-9.35493e-06
1.43727e-07
-9.37422e-06
1.92889e-08
-9.27114e-06
-1.03084e-07
-9.04424e-06
-2.26895e-07
-8.69395e-06
-3.50289e-07
-8.22581e-06
-4.68143e-07
-7.64706e-06
-5.78747e-07
-6.96938e-06
-6.77688e-07
-6.20311e-06
-7.66266e-07
-5.36154e-06
-8.41565e-07
-4.4581e-06
-9.03441e-07
-3.50657e-06
-9.51532e-07
-2.52265e-06
-9.83922e-07
-1.51954e-06
-1.00311e-06
-5.11012e-07
-1.00852e-06
4.92333e-07
-1.00334e-06
1.47829e-06
-9.85958e-07
2.43911e-06
-9.60823e-07
3.36402e-06
-9.24907e-07
4.24914e-06
-8.85122e-07
5.08578e-06
-8.36633e-07
5.87444e-06
-7.88664e-07
6.60805e-06
-7.33614e-07
7.29068e-06
-6.82629e-07
7.91679e-06
-6.26106e-07
8.4943e-06
-5.77508e-07
9.01844e-06
-5.24141e-07
9.5007e-06
-4.82268e-07
9.93622e-06
-4.35512e-07
1.03402e-05
-4.03988e-07
1.07063e-05
-3.66079e-07
1.10534e-05
-3.47084e-07
1.13734e-05
-3.19997e-07
1.16908e-05
-3.17437e-07
1.19947e-05
-3.03881e-07
-3.29764e-07
-1.07704e-08
-3.63864e-09
-6.42519e-08
5.68948e-08
-1.47583e-07
1.01815e-07
-2.52769e-07
1.33365e-07
-3.74947e-07
1.57299e-07
-5.11765e-07
1.77578e-07
-6.6158e-07
1.95805e-07
-8.22928e-07
2.12307e-07
-9.94425e-07
2.27128e-07
-1.17475e-06
2.40294e-07
-1.36263e-06
2.51841e-07
-1.55689e-06
2.61831e-07
-1.75643e-06
2.70352e-07
-1.96024e-06
2.77518e-07
-2.16745e-06
2.83461e-07
-2.37729e-06
2.88325e-07
-2.58913e-06
2.92267e-07
-2.8025e-06
2.95449e-07
-3.01702e-06
2.98044e-07
-3.2325e-06
3.00249e-07
-3.44892e-06
3.02284e-07
-3.6664e-06
3.04383e-07
-3.88526e-06
3.06784e-07
-4.10598e-06
3.09726e-07
-4.32919e-06
3.13449e-07
-4.55573e-06
3.18203e-07
-4.78656e-06
3.2423e-07
-5.02282e-06
3.31751e-07
-5.26577e-06
3.40956e-07
-5.51678e-06
3.52007e-07
-5.77733e-06
3.6504e-07
-6.04896e-06
3.80181e-07
-6.33328e-06
3.97593e-07
-6.63198e-06
4.17554e-07
-6.94679e-06
4.4051e-07
-7.27945e-06
4.67e-07
-7.63147e-06
4.97592e-07
-8.00398e-06
5.32875e-07
-8.39734e-06
5.73271e-07
-8.81079e-06
6.18865e-07
-9.24202e-06
6.6916e-07
-9.68682e-06
7.22718e-07
-1.01386e-05
7.76585e-07
-1.05882e-05
8.26066e-07
-1.10237e-05
8.65052e-07
-1.14314e-05
8.86474e-07
-1.17959e-05
8.8343e-07
-1.21016e-05
8.50167e-07
-1.23332e-05
7.82045e-07
-1.24756e-05
6.76569e-07
-1.25152e-05
5.34438e-07
-1.24418e-05
3.60601e-07
-1.22436e-05
1.54723e-07
-1.19152e-05
-7.40412e-08
-1.14629e-05
-3.08541e-07
-1.08868e-05
-5.56872e-07
-1.01801e-05
-8.0975e-07
-9.34877e-06
-1.05825e-06
-8.39953e-06
-1.29953e-06
-7.34175e-06
-1.52592e-06
-6.18422e-06
-1.73627e-06
-4.94129e-06
-1.92062e-06
-3.62326e-06
-2.0843e-06
-2.24578e-06
-2.21904e-06
-8.21391e-07
-2.32783e-06
6.32744e-07
-2.40567e-06
2.1059e-06
-2.45707e-06
3.58456e-06
-2.48178e-06
5.05722e-06
-2.48118e-06
6.51189e-06
-2.45801e-06
7.93829e-06
-2.41235e-06
9.32765e-06
-2.35019e-06
1.06723e-05
-2.26956e-06
1.19665e-05
-2.17933e-06
1.32051e-05
-2.07524e-06
1.43851e-05
-1.96867e-06
1.5504e-05
-1.8525e-06
1.65619e-05
-1.74048e-06
1.75581e-05
-1.62238e-06
1.84953e-05
-1.51464e-06
1.93744e-05
-1.40325e-06
2.02e-05
-1.30785e-06
2.09744e-05
-1.20995e-06
2.17038e-05
-1.13341e-06
2.23919e-05
-1.05415e-06
2.30468e-05
-1.002e-06
2.36726e-05
-9.45794e-07
2.42793e-05
-9.24113e-07
2.48699e-05
-8.94549e-07
-9.02837e-07
-4.9968e-08
4.63293e-08
-1.86322e-07
1.93249e-07
-3.68633e-07
2.84125e-07
-5.78058e-07
3.42791e-07
-8.05738e-07
3.84979e-07
-1.04921e-06
4.21049e-07
-1.30689e-06
4.5349e-07
-1.57626e-06
4.81677e-07
-1.85473e-06
5.05595e-07
-2.13989e-06
5.25454e-07
-2.42958e-06
5.41526e-07
-2.72188e-06
5.54137e-07
-3.01519e-06
5.63662e-07
-3.30817e-06
5.70495e-07
-3.59974e-06
5.75033e-07
-3.88908e-06
5.77666e-07
-4.17558e-06
5.78769e-07
-4.45885e-06
5.78719e-07
-4.73864e-06
5.77835e-07
-5.01489e-06
5.76491e-07
-5.28769e-06
5.75086e-07
-5.5573e-06
5.73992e-07
-5.82407e-06
5.73557e-07
-6.08844e-06
5.74096e-07
-6.35089e-06
5.75897e-07
-6.61191e-06
5.79229e-07
-6.87201e-06
5.8433e-07
-7.13163e-06
5.91369e-07
-7.3911e-06
6.00422e-07
-7.65059e-06
6.11494e-07
-7.91006e-06
6.24512e-07
-8.16921e-06
6.39335e-07
-8.4274e-06
6.55777e-07
-8.68355e-06
6.7371e-07
-8.93634e-06
6.93294e-07
-9.18391e-06
7.14575e-07
-9.42375e-06
7.37426e-07
-9.65257e-06
7.61699e-07
-9.86624e-06
7.86938e-07
-1.00596e-05
8.12178e-07
-1.02262e-05
8.35853e-07
-1.03592e-05
8.55685e-07
-1.04501e-05
8.67504e-07
-1.04902e-05
8.66139e-07
-1.04703e-05
8.45178e-07
-1.03814e-05
7.9754e-07
-1.02147e-05
7.16732e-07
-9.96337e-06
5.98838e-07
-9.62228e-06
4.40961e-07
-9.18747e-06
2.41755e-07
-8.64922e-06
-3.81528e-09
-8.01879e-06
-2.6982e-07
-7.29192e-06
-5.7215e-07
-6.46847e-06
-8.97495e-07
-5.54089e-06
-1.23611e-06
-4.51888e-06
-1.57889e-06
-3.40722e-06
-1.92141e-06
-2.21203e-06
-2.25344e-06
-9.38851e-07
-2.5727e-06
4.02597e-07
-2.86737e-06
1.8012e-06
-3.13487e-06
3.25007e-06
-3.3695e-06
4.73895e-06
-3.57317e-06
6.25513e-06
-3.73522e-06
7.78976e-06
-3.86247e-06
9.3309e-06
-3.9468e-06
1.08692e-05
-3.99534e-06
1.23918e-05
-4.00447e-06
1.38912e-05
-3.98054e-06
1.53565e-05
-3.92334e-06
1.67823e-05
-3.8381e-06
1.816e-05
-3.72789e-06
1.94868e-05
-3.59639e-06
2.07567e-05
-3.44928e-06
2.19695e-05
-3.288e-06
2.31214e-05
-3.12053e-06
2.42143e-05
-2.94546e-06
2.52468e-05
-2.77292e-06
2.62225e-05
-2.59809e-06
2.71414e-05
-2.43357e-06
2.80087e-05
-2.27058e-06
2.88257e-05
-2.12481e-06
2.95985e-05
-1.98275e-06
3.03295e-05
-1.86437e-06
3.10256e-05
-1.75027e-06
3.16901e-05
-1.66649e-06
3.23304e-05
-1.58608e-06
3.29494e-05
-1.54312e-06
3.35547e-05
-1.49982e-06
-1.5063e-06
-1.38284e-07
1.84613e-07
-3.92381e-07
4.47346e-07
-6.85942e-07
5.77686e-07
-9.96869e-07
6.53718e-07
-1.32299e-06
7.11101e-07
-1.66155e-06
7.59605e-07
-2.00752e-06
7.99463e-07
-2.3562e-06
8.30355e-07
-2.70358e-06
8.52974e-07
-3.04664e-06
8.68515e-07
-3.38293e-06
8.77819e-07
-3.71057e-06
8.81771e-07
-4.02819e-06
8.8129e-07
-4.33488e-06
8.77184e-07
-4.63002e-06
8.70171e-07
-4.91325e-06
8.60899e-07
-5.18442e-06
8.49934e-07
-5.44347e-06
8.37767e-07
-5.69048e-06
8.24851e-07
-5.92562e-06
8.11632e-07
-6.14906e-06
7.98527e-07
-6.36099e-06
7.85915e-07
-6.56154e-06
7.74114e-07
-6.75081e-06
7.63366e-07
-6.92877e-06
7.53848e-07
-7.09523e-06
7.45694e-07
-7.24992e-06
7.39014e-07
-7.39236e-06
7.33812e-07
-7.52187e-06
7.29935e-07
-7.63751e-06
7.27136e-07
-7.73807e-06
7.25066e-07
-7.82201e-06
7.23276e-07
-7.88747e-06
7.21242e-07
-7.93219e-06
7.1843e-07
-7.9534e-06
7.14504e-07
-7.94815e-06
7.09323e-07
-7.91287e-06
7.02146e-07
-7.84344e-06
6.92268e-07
-7.73516e-06
6.78663e-07
-7.58282e-06
6.59838e-07
-7.38047e-06
6.33505e-07
-7.12135e-06
5.96561e-07
-6.80022e-06
5.46377e-07
-6.41189e-06
4.77805e-07
-5.95169e-06
3.84978e-07
-5.41595e-06
2.61805e-07
-4.80078e-06
1.01556e-07
-4.10663e-06
-9.53079e-08
-3.3352e-06
-3.30472e-07
-2.48657e-06
-6.06879e-07
-1.56699e-06
-9.23393e-07
-5.67285e-07
-1.26952e-06
5.05859e-07
-1.64529e-06
1.64619e-06
-2.03782e-06
2.85227e-06
-2.4422e-06
4.12021e-06
-2.84683e-06
5.44703e-06
-3.24823e-06
6.82629e-06
-3.6327e-06
8.25291e-06
-3.99932e-06
9.71853e-06
-4.33299e-06
1.12186e-05
-4.63499e-06
1.27414e-05
-4.89221e-06
1.42789e-05
-5.11069e-06
1.58207e-05
-5.27709e-06
1.73581e-05
-5.39978e-06
1.88802e-05
-5.46899e-06
2.03796e-05
-5.49467e-06
2.18456e-05
-5.47046e-06
2.32726e-05
-5.40762e-06
2.46519e-05
-5.30263e-06
2.59805e-05
-5.16671e-06
2.72516e-05
-4.99892e-06
2.84649e-05
-4.80967e-06
2.96156e-05
-4.60006e-06
3.07062e-05
-4.37854e-06
3.17336e-05
-4.14798e-06
3.27022e-05
-3.91403e-06
3.36106e-05
-3.68132e-06
3.44645e-05
-3.45199e-06
3.52638e-05
-3.23283e-06
3.60151e-05
-3.02188e-06
3.6719e-05
-2.82881e-06
3.73832e-05
-2.64689e-06
3.80085e-05
-2.48969e-06
3.86031e-05
-2.3449e-06
3.9168e-05
-2.23132e-06
3.97118e-05
-2.12993e-06
4.02353e-05
-2.06665e-06
4.07504e-05
-2.01493e-06
-2.0122e-06
-1.95461e-07
3.80074e-07
-5.66302e-07
8.18188e-07
-9.84673e-07
9.96056e-07
-1.41245e-06
1.08149e-06
-1.83342e-06
1.13208e-06
-2.2389e-06
1.16508e-06
-2.62513e-06
1.1857e-06
-2.99101e-06
1.19624e-06
-3.33478e-06
1.19674e-06
-3.65494e-06
1.18868e-06
-3.95085e-06
1.17372e-06
-4.22237e-06
1.1533e-06
-4.46979e-06
1.12871e-06
-4.69363e-06
1.10103e-06
-4.8946e-06
1.07114e-06
-5.07349e-06
1.03979e-06
-5.23111e-06
1.00755e-06
-5.36819e-06
9.74848e-07
-5.48539e-06
9.42051e-07
-5.58329e-06
9.09531e-07
-5.66236e-06
8.77598e-07
-5.72294e-06
8.46492e-07
-5.7652e-06
8.16381e-07
-5.78916e-06
7.87318e-07
-5.79457e-06
7.59263e-07
-5.781e-06
7.32119e-07
-5.7478e-06
7.05815e-07
-5.69418e-06
6.80199e-07
-5.61911e-06
6.5486e-07
-5.52128e-06
6.29303e-07
-5.39915e-06
6.02935e-07
-5.25091e-06
5.75044e-07
-5.07449e-06
5.44822e-07
-4.86744e-06
5.11371e-07
-4.62668e-06
4.73752e-07
-4.34954e-06
4.32177e-07
-4.03255e-06
3.85156e-07
-3.67188e-06
3.31603e-07
-3.26332e-06
2.70098e-07
-2.80228e-06
1.98801e-07
-2.28394e-06
1.15163e-07
-1.70189e-06
1.45094e-08
-1.05659e-06
-9.89257e-08
-3.43688e-07
-2.35095e-07
4.39755e-07
-3.98465e-07
1.29451e-06
-5.92949e-07
2.21815e-06
-8.22082e-07
3.21e-06
-1.08716e-06
4.26976e-06
-1.39023e-06
5.39271e-06
-1.72983e-06
6.57443e-06
-2.10511e-06
7.81224e-06
-2.50734e-06
9.10132e-06
-2.93437e-06
1.04381e-05
-3.37458e-06
1.18196e-05
-3.82377e-06
1.32409e-05
-4.26811e-06
1.46974e-05
-4.70474e-06
1.61826e-05
-5.11782e-06
1.76896e-05
-5.50633e-06
1.92105e-05
-5.85392e-06
2.07378e-05
-6.16226e-06
2.22618e-05
-6.41629e-06
2.37734e-05
-6.62225e-06
2.52634e-05
-6.7671e-06
2.67237e-05
-6.86006e-06
2.81457e-05
-6.89094e-06
2.95233e-05
-6.87226e-06
3.08492e-05
-6.79645e-06
3.21201e-05
-6.6785e-06
3.33305e-05
-6.51297e-06
3.44797e-05
-6.31597e-06
3.55643e-05
-6.08353e-06
3.65864e-05
-5.83177e-06
3.75439e-05
-5.55754e-06
3.84411e-05
-5.27578e-06
3.9277e-05
-4.9838e-06
4.00575e-05
-4.69454e-06
4.07819e-05
-4.40576e-06
4.14577e-05
-4.12782e-06
4.20842e-05
-3.85924e-06
4.26697e-05
-3.60745e-06
4.32132e-05
-3.37226e-06
4.37241e-05
-3.15779e-06
4.42003e-05
-2.96593e-06
4.46525e-05
-2.79706e-06
4.50773e-05
-2.65615e-06
4.54867e-05
-2.53932e-06
4.5876e-05
-2.45595e-06
4.62584e-05
-2.39732e-06
-2.38396e-06
-4.22342e-07
8.02416e-07
-9.63035e-07
1.35888e-06
-1.45662e-06
1.48964e-06
-1.89128e-06
1.51616e-06
-2.28851e-06
1.5293e-06
-2.65337e-06
1.52995e-06
-2.98121e-06
1.51354e-06
-3.26598e-06
1.481e-06
-3.5042e-06
1.43496e-06
-3.698e-06
1.38249e-06
-3.85041e-06
1.32613e-06
-3.9644e-06
1.26729e-06
-4.04288e-06
1.20719e-06
-4.08861e-06
1.14676e-06
-4.1041e-06
1.08663e-06
-4.0916e-06
1.02729e-06
-4.05312e-06
9.69064e-07
-3.99032e-06
9.12049e-07
-3.90456e-06
8.56292e-07
-3.79695e-06
8.0192e-07
-3.66835e-06
7.48995e-07
-3.51933e-06
6.97472e-07
-3.35021e-06
6.47261e-07
-3.161e-06
5.98115e-07
-2.95143e-06
5.49689e-07
-2.72087e-06
5.01559e-07
-2.46852e-06
4.53471e-07
-2.19348e-06
4.05159e-07
-1.89443e-06
3.55807e-07
-1.56987e-06
3.04742e-07
-1.21813e-06
2.51195e-07
-8.37303e-07
1.94218e-07
-4.25168e-07
1.32687e-07
2.10636e-08
6.51398e-08
5.04952e-07
-1.01367e-08
1.02654e-06
-8.94082e-08
1.59036e-06
-1.78661e-07
2.19998e-06
-2.78017e-07
2.85895e-06
-3.88874e-07
3.57092e-06
-5.13166e-07
4.3391e-06
-6.53021e-07
5.16421e-06
-8.10606e-07
6.05345e-06
-9.88164e-07
7.00765e-06
-1.18929e-06
8.02708e-06
-1.4179e-06
9.11086e-06
-1.67673e-06
1.02572e-05
-1.96844e-06
1.14635e-05
-2.29343e-06
1.27259e-05
-2.65269e-06
1.40395e-05
-3.04342e-06
1.53988e-05
-3.46434e-06
1.67989e-05
-3.90744e-06
1.82336e-05
-4.36908e-06
1.9697e-05
-4.83795e-06
2.11826e-05
-5.30938e-06
2.26837e-05
-5.76926e-06
2.41923e-05
-6.21333e-06
2.57005e-05
-6.62598e-06
2.71989e-05
-7.00473e-06
2.8679e-05
-7.33405e-06
3.01314e-05
-7.61467e-06
3.15477e-05
-7.83258e-06
3.29191e-05
-7.99368e-06
3.42389e-05
-8.08682e-06
3.5501e-05
-8.1222e-06
3.67009e-05
-8.09081e-06
3.78355e-05
-8.00686e-06
3.89023e-05
-7.86323e-06
3.9901e-05
-7.67729e-06
4.08312e-05
-7.44311e-06
4.16952e-05
-7.17996e-06
4.24937e-05
-6.88208e-06
4.32314e-05
-6.56941e-06
4.39094e-05
-6.23555e-06
4.45337e-05
-5.90012e-06
4.51056e-05
-5.55563e-06
4.56318e-05
-5.22077e-06
4.61129e-05
-4.8869e-06
4.65566e-05
-4.57152e-06
4.69624e-05
-4.26501e-06
4.73385e-05
-3.98359e-06
4.76833e-05
-3.71701e-06
4.80057e-05
-3.48021e-06
4.83025e-05
-3.26276e-06
4.85838e-05
-3.0783e-06
4.88445e-05
-2.91684e-06
4.90958e-05
-2.7906e-06
4.93306e-05
-2.69079e-06
4.95614e-05
-2.62814e-06
-2.60137e-06
-2.66941e-07
1.06936e-06
-8.63107e-07
1.95505e-06
-1.48372e-06
2.11026e-06
-2.0032e-06
2.03563e-06
-2.39426e-06
1.92036e-06
-2.65972e-06
1.7954e-06
-2.81737e-06
1.67119e-06
-2.88749e-06
1.55112e-06
-2.88749e-06
1.43495e-06
-2.82838e-06
1.32338e-06
-2.71855e-06
1.21629e-06
-2.56459e-06
1.11333e-06
-2.37222e-06
1.01482e-06
-2.14634e-06
9.20873e-07
-1.89106e-06
8.31349e-07
-1.60978e-06
7.4601e-07
-1.30538e-06
6.64671e-07
-9.80091e-07
5.86756e-07
-6.35611e-07
5.11813e-07
-2.73353e-07
4.39662e-07
1.05697e-07
3.69945e-07
5.00952e-07
3.02216e-07
9.12169e-07
2.36044e-07
1.33961e-06
1.70676e-07
1.78393e-06
1.05368e-07
2.2464e-06
3.90907e-08
2.7279e-06
-2.80325e-08
3.22899e-06
-9.59269e-08
3.75184e-06
-1.67049e-07
4.29839e-06
-2.41805e-07
4.87064e-06
-3.21058e-07
5.47079e-06
-4.05934e-07
6.10106e-06
-4.97575e-07
6.76341e-06
-5.97213e-07
7.459e-06
-7.05729e-07
8.19359e-06
-8.24001e-07
8.9687e-06
-9.5377e-07
9.78727e-06
-1.09658e-06
1.06521e-05
-1.25373e-06
1.1566e-05
-1.42706e-06
1.25312e-05
-1.61824e-06
1.35502e-05
-1.82953e-06
1.46247e-05
-2.06271e-06
1.57555e-05
-2.32007e-06
1.69416e-05
-2.60398e-06
1.81811e-05
-2.91623e-06
1.94707e-05
-3.25805e-06
2.08063e-05
-3.62903e-06
2.21821e-05
-4.02854e-06
2.35919e-05
-4.45323e-06
2.50277e-05
-4.90014e-06
2.6482e-05
-5.36173e-06
2.79454e-05
-5.83245e-06
2.94094e-05
-6.30194e-06
3.08638e-05
-6.76378e-06
3.22998e-05
-7.20526e-06
3.37068e-05
-7.62034e-06
3.5076e-05
-7.99516e-06
3.63972e-05
-8.32598e-06
3.76632e-05
-8.59999e-06
3.88655e-05
-8.81705e-06
3.99988e-05
-8.96583e-06
4.10574e-05
-9.05223e-06
4.2039e-05
-9.06846e-06
4.29425e-05
-9.02571e-06
4.37688e-05
-8.91711e-06
4.45196e-05
-8.75765e-06
4.51978e-05
-8.54148e-06
4.58077e-05
-8.28716e-06
4.63534e-05
-7.98883e-06
4.68408e-05
-7.66731e-06
4.72742e-05
-7.3155e-06
4.76602e-05
-6.9554e-06
4.80025e-05
-6.5779e-06
4.83078e-05
-6.20541e-06
4.85787e-05
-5.82647e-06
4.88215e-05
-5.46358e-06
4.90374e-05
-5.10284e-06
4.92327e-05
-4.76686e-06
4.94072e-05
-4.43944e-06
4.9567e-05
-4.14337e-06
4.97103e-05
-3.86034e-06
4.98437e-05
-3.61359e-06
4.99638e-05
-3.3829e-06
5.00777e-05
-3.19221e-06
5.01806e-05
-3.01969e-06
5.02801e-05
-2.89018e-06
5.03698e-05
-2.78044e-06
5.04578e-05
-2.71611e-06
-2.67611e-06
-1.49514e-06
2.5645e-06
-1.94647e-06
2.40637e-06
-2.11223e-06
2.27602e-06
-2.12914e-06
2.05254e-06
-2.01689e-06
1.80811e-06
-1.7993e-06
1.57781e-06
-1.4956e-06
1.36749e-06
-1.1202e-06
1.17572e-06
-6.85772e-07
1.00053e-06
-2.04633e-07
8.42245e-07
3.13952e-07
6.97704e-07
8.62274e-07
5.65008e-07
1.43361e-06
4.43486e-07
2.02291e-06
3.31579e-07
2.62631e-06
2.2794e-07
3.24069e-06
1.31634e-07
3.86309e-06
4.22677e-08
4.49293e-06
-4.30801e-08
5.12962e-06
-1.24875e-07
5.77164e-06
-2.02361e-07
6.41873e-06
-2.77145e-07
7.07109e-06
-3.50137e-07
7.72866e-06
-4.21527e-07
8.39267e-06
-4.93339e-07
9.06453e-06
-5.66486e-07
9.74515e-06
-6.41533e-07
1.04363e-05
-7.19185e-07
1.11408e-05
-8.00412e-07
1.18602e-05
-8.86469e-07
1.25968e-05
-9.78426e-07
1.3353e-05
-1.07723e-06
1.41311e-05
-1.18403e-06
1.49334e-05
-1.29987e-06
1.57622e-05
-1.42598e-06
1.66199e-05
-1.56344e-06
1.75093e-05
-1.71338e-06
1.84323e-05
-1.87686e-06
1.93912e-05
-2.05544e-06
2.03877e-05
-2.25023e-06
2.14235e-05
-2.46284e-06
2.24996e-05
-2.69439e-06
2.36167e-05
-2.94663e-06
2.47746e-05
-3.2206e-06
2.59722e-05
-3.51766e-06
2.72067e-05
-3.83847e-06
2.84743e-05
-4.18387e-06
2.97697e-05
-4.55338e-06
3.10865e-05
-4.94588e-06
3.24168e-05
-5.35879e-06
3.37521e-05
-5.78861e-06
3.50829e-05
-6.23087e-06
3.63987e-05
-6.67759e-06
3.76882e-05
-7.12196e-06
3.89415e-05
-7.55519e-06
4.0147e-05
-7.96931e-06
4.12958e-05
-8.35409e-06
4.23778e-05
-8.70224e-06
4.33862e-05
-9.00361e-06
4.43138e-05
-9.2536e-06
4.51573e-05
-9.44347e-06
4.59131e-05
-9.57281e-06
4.6582e-05
-9.63476e-06
4.71635e-05
-9.63378e-06
4.76618e-05
-9.56676e-06
4.80817e-05
-9.44557e-06
4.84301e-05
-9.26553e-06
4.87134e-05
-9.04096e-06
4.89395e-05
-8.76757e-06
4.91158e-05
-8.4635e-06
4.92499e-05
-8.12288e-06
4.93491e-05
-7.76648e-06
4.94193e-05
-7.38573e-06
4.94672e-05
-7.00332e-06
4.94966e-05
-6.60731e-06
4.95132e-05
-6.22198e-06
4.95185e-05
-5.83179e-06
4.95175e-05
-5.46259e-06
4.95099e-05
-5.0952e-06
4.95001e-05
-4.75711e-06
4.94862e-05
-4.42554e-06
4.94727e-05
-4.12986e-06
4.94561e-05
-3.84373e-06
4.94412e-05
-3.59866e-06
4.94232e-05
-3.36489e-06
4.94073e-05
-3.17635e-06
4.93876e-05
-2.99995e-06
4.93697e-05
-2.87228e-06
4.93465e-05
-2.75722e-06
4.93248e-05
-2.69441e-06
-2.64117e-06
-8.95803e-07
3.4603e-06
-7.42411e-07
2.25298e-06
-2.52621e-07
1.78623e-06
4.58889e-07
1.34103e-06
1.32696e-06
9.4004e-07
2.28549e-06
6.19279e-07
3.28816e-06
3.64821e-07
4.3076e-06
1.56281e-07
5.32978e-06
-2.16521e-08
6.33987e-06
-1.67848e-07
7.33954e-06
-3.01964e-07
8.32704e-06
-4.22498e-07
9.29789e-06
-5.2736e-07
1.02513e-05
-6.2183e-07
1.11871e-05
-7.07899e-07
1.21056e-05
-7.86843e-07
1.30077e-05
-8.59854e-07
1.38932e-05
-9.28558e-07
1.47624e-05
-9.94053e-07
1.56171e-05
-1.05702e-06
1.64585e-05
-1.11859e-06
1.7288e-05
-1.17968e-06
1.8108e-05
-1.24147e-06
1.89204e-05
-1.30575e-06
1.97273e-05
-1.37337e-06
2.0531e-05
-1.44522e-06
2.13341e-05
-1.52229e-06
2.21392e-05
-1.60558e-06
2.29489e-05
-1.69612e-06
2.37655e-05
-1.79506e-06
2.45917e-05
-1.90338e-06
2.54297e-05
-2.02201e-06
2.62816e-05
-2.15184e-06
2.71496e-05
-2.29394e-06
2.80353e-05
-2.4492e-06
2.89406e-05
-2.61862e-06
2.98667e-05
-2.80293e-06
3.08145e-05
-3.00325e-06
3.17845e-05
-3.2203e-06
3.27768e-05
-3.45513e-06
3.37907e-05
-3.70826e-06
3.48248e-05
-3.98075e-06
3.58773e-05
-4.27312e-06
3.69447e-05
-4.58501e-06
3.80223e-05
-4.91611e-06
3.91046e-05
-5.26611e-06
4.01843e-05
-5.63315e-06
4.12537e-05
-6.01528e-06
4.23036e-05
-6.4087e-06
4.33245e-05
-6.80947e-06
4.43052e-05
-7.2116e-06
4.52365e-05
-7.60884e-06
4.61081e-05
-7.99353e-06
4.69114e-05
-8.35851e-06
4.76378e-05
-8.69576e-06
4.82818e-05
-8.99802e-06
4.88378e-05
-9.25829e-06
4.93046e-05
-9.47045e-06
4.96811e-05
-9.63002e-06
4.99703e-05
-9.73273e-06
5.01752e-05
-9.77773e-06
5.03033e-05
-9.76283e-06
5.0361e-05
-9.69152e-06
5.03584e-05
-9.5641e-06
5.03032e-05
-9.39039e-06
5.02067e-05
-9.16901e-06
5.00766e-05
-8.9109e-06
4.9923e-05
-8.61396e-06
4.97523e-05
-8.29277e-06
4.9572e-05
-7.94263e-06
4.93869e-05
-7.58135e-06
4.92017e-05
-7.20052e-06
4.90194e-05
-6.82106e-06
4.88421e-05
-6.42998e-06
4.86717e-05
-6.05158e-06
4.85079e-05
-5.66795e-06
4.83525e-05
-5.30722e-06
4.82034e-05
-4.94607e-06
4.8063e-05
-4.61672e-06
4.79274e-05
-4.28999e-06
4.78002e-05
-4.00263e-06
4.76758e-05
-3.71929e-06
4.75589e-05
-3.48182e-06
4.74424e-05
-3.24837e-06
4.73324e-05
-3.06639e-06
4.72197e-05
-2.88726e-06
4.7112e-05
-2.76457e-06
4.69977e-05
-2.64291e-06
4.6886e-05
-2.58265e-06
-2.51925e-06
3.65455e-06
-1.94252e-07
6.37866e-06
-4.7113e-07
8.78833e-06
-6.23436e-07
1.0908e-05
-7.78653e-07
1.27806e-05
-9.32591e-07
1.44704e-05
-1.07047e-06
1.6022e-05
-1.18674e-06
1.74524e-05
-1.2742e-06
1.87874e-05
-1.35659e-06
2.00493e-05
-1.42976e-06
2.12415e-05
-1.49415e-06
2.23706e-05
-1.55166e-06
2.34462e-05
-1.60287e-06
2.44731e-05
-1.64881e-06
2.54557e-05
-1.69049e-06
2.63977e-05
-1.72884e-06
2.73026e-05
-1.7647e-06
2.81731e-05
-1.79905e-06
2.90119e-05
-1.83293e-06
2.98223e-05
-1.86734e-06
3.06069e-05
-1.9032e-06
3.13688e-05
-1.94161e-06
3.2111e-05
-1.98372e-06
3.28361e-05
-2.03077e-06
3.35465e-05
-2.08383e-06
3.42452e-05
-2.14385e-06
3.49346e-05
-2.21174e-06
3.56174e-05
-2.28838e-06
3.62959e-05
-2.37461e-06
3.69722e-05
-2.47141e-06
3.76487e-05
-2.57985e-06
3.83269e-05
-2.70019e-06
3.90082e-05
-2.83319e-06
3.96939e-05
-2.97963e-06
4.03848e-05
-3.1401e-06
4.10814e-05
-3.31519e-06
4.17838e-05
-3.50535e-06
4.24917e-05
-3.71109e-06
4.32041e-05
-3.93273e-06
4.39196e-05
-4.17062e-06
4.46361e-05
-4.42481e-06
4.53508e-05
-4.69539e-06
4.60595e-05
-4.98187e-06
4.67581e-05
-5.28357e-06
4.74412e-05
-5.59921e-06
4.81025e-05
-5.92741e-06
4.87351e-05
-6.26576e-06
4.93314e-05
-6.61162e-06
4.98838e-05
-6.96103e-06
5.03842e-05
-7.30987e-06
5.08251e-05
-7.65257e-06
5.12002e-05
-7.98389e-06
5.15038e-05
-8.29717e-06
5.17321e-05
-8.5868e-06
5.18825e-05
-8.84618e-06
5.19551e-05
-9.07054e-06
5.19514e-05
-9.25462e-06
5.18762e-05
-9.3953e-06
5.17351e-05
-9.48889e-06
5.15366e-05
-9.53415e-06
5.12884e-05
-9.52955e-06
5.10011e-05
-9.47559e-06
5.06838e-05
-9.37419e-06
5.03474e-05
-9.22773e-06
4.99976e-05
-9.04056e-06
4.96436e-05
-8.81498e-06
4.92893e-05
-8.55662e-06
4.89416e-05
-8.26626e-06
4.8601e-05
-7.95213e-06
4.82717e-05
-7.61337e-06
4.7952e-05
-7.26171e-06
4.76448e-05
-6.8933e-06
4.73471e-05
-6.52337e-06
4.70607e-05
-6.1435e-06
4.67823e-05
-5.77322e-06
4.6513e-05
-5.39867e-06
4.62505e-05
-5.04475e-06
4.59952e-05
-4.69077e-06
4.57462e-05
-4.36763e-06
4.55025e-05
-4.04635e-06
4.5265e-05
-3.76512e-06
4.50311e-05
-3.48534e-06
4.48033e-05
-3.25409e-06
4.45766e-05
-3.02162e-06
4.43559e-05
-2.84567e-06
4.41324e-05
-2.66375e-06
4.3914e-05
-2.5462e-06
4.36872e-05
-2.41609e-06
4.34627e-05
-2.3582e-06
-2.28531e-06
3.86072e-05
1.36901e-08
3.8575e-05
-4.38937e-07
3.87135e-05
-7.61928e-07
3.89381e-05
-1.00326e-06
3.92108e-05
-1.20533e-06
3.95259e-05
-1.38553e-06
3.98844e-05
-1.54531e-06
4.0288e-05
-1.67774e-06
4.07163e-05
-1.78488e-06
4.11593e-05
-1.87276e-06
4.16101e-05
-1.94497e-06
4.20631e-05
-2.00466e-06
4.25143e-05
-2.0541e-06
4.29605e-05
-2.09504e-06
4.33992e-05
-2.12914e-06
4.38283e-05
-2.158e-06
4.42468e-05
-2.18315e-06
4.46538e-05
-2.20605e-06
4.5049e-05
-2.22817e-06
4.54326e-05
-2.25095e-06
4.58051e-05
-2.27572e-06
4.61673e-05
-2.30382e-06
4.65202e-05
-2.33653e-06
4.68645e-05
-2.37509e-06
4.72013e-05
-2.42066e-06
4.75318e-05
-2.4743e-06
4.78569e-05
-2.53693e-06
4.8178e-05
-2.60939e-06
4.84958e-05
-2.69245e-06
4.88112e-05
-2.78684e-06
4.91246e-05
-2.8932e-06
4.94364e-05
-3.01201e-06
4.97469e-05
-3.14372e-06
5.0056e-05
-3.28874e-06
5.03633e-05
-3.44742e-06
5.06682e-05
-3.62004e-06
5.09696e-05
-3.80676e-06
5.12662e-05
-4.00768e-06
5.15562e-05
-4.22278e-06
5.18375e-05
-4.45191e-06
5.21075e-05
-4.69477e-06
5.23629e-05
-4.95083e-06
5.26003e-05
-5.21928e-06
5.28158e-05
-5.49903e-06
5.30052e-05
-5.78856e-06
5.31637e-05
-6.08598e-06
5.32869e-05
-6.38895e-06
5.337e-05
-6.69473e-06
5.34089e-05
-6.99994e-06
5.33998e-05
-7.3008e-06
5.33402e-05
-7.59292e-06
5.32282e-05
-7.87188e-06
5.30638e-05
-8.13277e-06
5.28481e-05
-8.37111e-06
5.25839e-05
-8.58198e-06
5.2275e-05
-8.76162e-06
5.19273e-05
-8.90695e-06
5.15473e-05
-9.01535e-06
5.11422e-05
-9.08377e-06
5.07192e-05
-9.11112e-06
5.02847e-05
-9.09511e-06
4.98451e-05
-9.03595e-06
4.9404e-05
-8.93307e-06
4.8965e-05
-8.78879e-06
4.85286e-05
-8.60417e-06
4.80964e-05
-8.38279e-06
4.76666e-05
-8.12675e-06
4.72401e-05
-7.83978e-06
4.68132e-05
-7.52527e-06
4.63871e-05
-7.18728e-06
4.59575e-05
-6.83208e-06
4.55273e-05
-6.46303e-06
4.50923e-05
-6.08837e-06
4.46572e-05
-5.70841e-06
4.4218e-05
-5.33406e-06
4.37809e-05
-4.96159e-06
4.33419e-05
-4.60577e-06
4.29081e-05
-4.25689e-06
4.24751e-05
-3.93469e-06
4.20501e-05
-3.62137e-06
4.16287e-05
-3.34374e-06
4.1217e-05
-3.0736e-06
4.08106e-05
-2.84765e-06
4.04133e-05
-2.62439e-06
4.00217e-05
-2.45401e-06
3.96359e-05
-2.27801e-06
3.92548e-05
-2.16505e-06
3.88735e-05
-2.03479e-06
3.84947e-05
-1.97943e-06
-1.89576e-06
5.29838e-05
9.14201e-08
5.28892e-05
-3.44338e-07
5.28597e-05
-7.32506e-07
5.2883e-05
-1.02648e-06
5.29277e-05
-1.25011e-06
5.29749e-05
-1.43266e-06
5.30207e-05
-1.59111e-06
5.30729e-05
-1.72993e-06
5.31363e-05
-1.84835e-06
5.321e-05
-1.94642e-06
5.3291e-05
-2.02593e-06
5.3376e-05
-2.08968e-06
5.34625e-05
-2.14057e-06
5.35486e-05
-2.18114e-06
5.3633e-05
-2.21356e-06
5.37147e-05
-2.23971e-06
5.37929e-05
-2.26136e-06
5.38671e-05
-2.28019e-06
5.39368e-05
-2.29787e-06
5.40018e-05
-2.31599e-06
5.40622e-05
-2.3361e-06
5.4118e-05
-2.35966e-06
5.41695e-05
-2.38801e-06
5.42169e-05
-2.42245e-06
5.42603e-05
-2.46413e-06
5.43001e-05
-2.51413e-06
5.43366e-05
-2.57336e-06
5.43698e-05
-2.64261e-06
5.43999e-05
-2.72258e-06
5.4427e-05
-2.81386e-06
5.44507e-05
-2.91693e-06
5.44709e-05
-3.03222e-06
5.44872e-05
-3.16005e-06
5.44992e-05
-3.30067e-06
5.4506e-05
-3.45424e-06
5.45068e-05
-3.62088e-06
5.45006e-05
-3.80059e-06
5.44862e-05
-3.99328e-06
5.44622e-05
-4.19877e-06
5.44271e-05
-4.41674e-06
5.4379e-05
-4.64672e-06
5.43162e-05
-4.88802e-06
5.42367e-05
-5.13979e-06
5.41385e-05
-5.40081e-06
5.40196e-05
-5.66962e-06
5.38778e-05
-5.94426e-06
5.37115e-05
-6.22256e-06
5.35189e-05
-6.50221e-06
5.32993e-05
-6.78026e-06
5.30517e-05
-7.05326e-06
5.27764e-05
-7.31759e-06
5.24738e-05
-7.56925e-06
5.21453e-05
-7.80424e-06
5.17925e-05
-8.01835e-06
5.1418e-05
-8.20749e-06
5.10241e-05
-8.36776e-06
5.0613e-05
-8.49579e-06
5.01861e-05
-8.58842e-06
4.97449e-05
-8.64264e-06
4.929e-05
-8.65622e-06
4.88211e-05
-8.62624e-06
4.83366e-05
-8.55141e-06
4.78345e-05
-8.43093e-06
4.73122e-05
-8.26655e-06
4.67677e-05
-8.05958e-06
4.61981e-05
-7.81325e-06
4.56016e-05
-7.53026e-06
4.49787e-05
-7.21687e-06
4.43293e-05
-6.87591e-06
4.36562e-05
-6.51412e-06
4.29604e-05
-6.13632e-06
4.22475e-05
-5.75009e-06
4.15192e-05
-5.36012e-06
4.07837e-05
-4.97289e-06
4.00425e-05
-4.59289e-06
3.93055e-05
-4.22459e-06
3.85723e-05
-3.87255e-06
3.78535e-05
-3.53804e-06
3.71456e-05
-3.22679e-06
3.646e-05
-2.93579e-06
3.57898e-05
-2.6735e-06
3.51468e-05
-2.43061e-06
3.45201e-05
-2.22097e-06
3.39222e-05
-2.02645e-06
3.33381e-05
-1.86998e-06
3.27802e-05
-1.72003e-06
3.22313e-05
-1.61617e-06
3.17028e-05
-1.50636e-06
3.11783e-05
-1.45489e-06
-1.37494e-06
5.43204e-05
-2.28478e-07
5.45028e-05
-5.26825e-07
5.46072e-05
-8.36879e-07
5.46947e-05