/*--------------------------------*- C++ -*----------------------------------*\
| =========                 |                                                 |
| \\      /  F ield         | OpenFOAM: The Open Source CFD Toolbox           |
|  \\    /   O peration     | Version:  2306                                  |
|   \\  /    A nd           | Website:  www.openfoam.com                      |
|    \\/     M anipulation  |                                                 |
\*---------------------------------------------------------------------------*/
FoamFile
{
    version     2.0;
    format      ascii;
    arch        "LSB;label=32;scalar=64";
    class       volVectorField;
    location    "9.5";
    object      U;
}
// * * * * * * * * * * * * * * * * * * * * * * * * * * * * * * * * * * * * * //

dimensions      [0 1 -1 0 0 0 0];

internalField   nonuniform List<vector> 
1900
(
(0.984273 0.00729125 0)
(0.961758 0.021682 0)
(0.952319 0.018181 0)
(0.918694 0.0253025 0)
(0.903392 0.0154508 0)
(0.863042 0.0257489 0)
(0.852207 0.011616 0)
(0.811891 0.0267309 0)
(0.80953 0.00459522 0)
(0.770311 0.0259975 0)
(1.00256 0.0115603 0)
(1.00446 0.0258642 0)
(1.01943 0.0289712 0)
(1.02197 0.0304657 0)
(1.03486 0.0280199 0)
(1.03394 0.0284391 0)
(1.04401 0.0258139 0)
(1.04273 0.0251355 0)
(1.05111 0.0207281 0)
(1.05216 0.0162923 0)
(1.00048 0.00388896 0)
(1.00419 0.0111599 0)
(1.01255 0.014009 0)
(1.02112 0.0158014 0)
(1.03153 0.0147346 0)
(1.04052 0.0144493 0)
(1.04996 0.012419 0)
(1.05836 0.0109882 0)
(1.06683 0.00739111 0)
(1.07465 0.00325842 0)
(1.00007 0.00207933 0)
(1.00313 0.0058493 0)
(1.00888 0.00806644 0)
(1.01648 0.00905232 0)
(1.02527 0.00858063 0)
(1.0343 0.00749016 0)
(1.04323 0.00572195 0)
(1.05178 0.0035735 0)
(1.05995 0.000764959 0)
(1.06762 -0.00272818 0)
(1.00003 0.000426851 0)
(1.00261 0.00117967 0)
(1.00738 0.0014476 0)
(1.01402 0.00117358 0)
(1.02191 0.000282614 0)
(1.03035 -0.00107111 0)
(1.03879 -0.00285324 0)
(1.04691 -0.00503869 0)
(1.05459 -0.0076754 0)
(1.06174 -0.0108213 0)
(1.00003 -0.00105819 0)
(1.00255 -0.00301923 0)
(1.0072 -0.00473543 0)
(1.01366 -0.00616677 0)
(1.02133 -0.00745871 0)
(1.02949 -0.00881105 0)
(1.03759 -0.0104094 0)
(1.04534 -0.0123633 0)
(1.05261 -0.0147129 0)
(1.05939 -0.0174286 0)
(1.00003 -0.00270812 0)
(1.00303 -0.0074245 0)
(1.00836 -0.011045 0)
(1.01546 -0.0134745 0)
(1.02347 -0.0150904 0)
(1.03164 -0.0164412 0)
(1.03952 -0.0179315 0)
(1.04692 -0.0197388 0)
(1.05385 -0.0218558 0)
(1.06035 -0.0241923 0)
(1.00004 -0.00476686 0)
(1.00441 -0.0122257 0)
(1.01138 -0.0169037 0)
(1.0198 -0.0193276 0)
(1.02841 -0.0206455 0)
(1.03642 -0.0218057 0)
(1.04363 -0.0232563 0)
(1.05011 -0.0250238 0)
(1.056 -0.0269666 0)
(1.06133 -0.0289506 0)
(1.00006 -0.012117 0)
(1.00722 -0.0259463 0)
(1.01559 -0.0314195 0)
(1.02288 -0.0325627 0)
(1.02796 -0.0326399 0)
(1.03076 -0.0330067 0)
(1.03179 -0.0337754 0)
(1.0315 -0.0346822 0)
(1.03012 -0.0355115 0)
(1.02765 -0.0362033 0)
(0.980777 -0.009163 0)
(0.964588 -0.0188198 0)
(0.945466 -0.0220429 0)
(0.920806 -0.0221801 0)
(0.892029 -0.0217314 0)
(0.861732 -0.0215669 0)
(0.831516 -0.0215946 0)
(0.801859 -0.0215789 0)
(0.772695 -0.0213958 0)
(0.743781 -0.0210604 0)
(0.000207203 -0.000110176 0)
(0.000341477 -2.06212e-05 0)
(7.25036e-05 2.90017e-05 0)
(-0.000418375 5.82757e-05 0)
(-0.00107299 7.6335e-05 0)
(-0.00184864 9.39935e-05 0)
(-0.00273221 0.000114693 0)
(-0.00371898 0.000137365 0)
(-0.00480379 0.000160785 0)
(-0.00598039 0.000184242 0)
(-0.00724169 0.000207305 0)
(-0.00858016 0.000229669 0)
(-0.00998813 0.000251092 0)
(-0.011458 0.000271372 0)
(-0.0129823 0.000290365 0)
(-0.014554 0.000307983 0)
(-0.0161665 0.000324188 0)
(-0.0178134 0.000338964 0)
(-0.0194892 0.000352284 0)
(-0.0211885 0.000364156 0)
(-0.0229069 0.000374615 0)
(-0.0246407 0.000383727 0)
(-0.0263871 0.000391586 0)
(-0.0281443 0.000398309 0)
(-0.0299117 0.000404021 0)
(-0.0316896 0.000408877 0)
(-0.0334795 0.000413081 0)
(-0.0352844 0.000416877 0)
(-0.0371086 0.000420532 0)
(-0.0389578 0.000424324 0)
(-0.0408391 0.000428519 0)
(-0.042761 0.000433317 0)
(-0.0447332 0.00043882 0)
(-0.0467666 0.000445114 0)
(-0.0488734 0.000452482 0)
(-0.0510678 0.000461577 0)
(-0.0533665 0.000473458 0)
(-0.0557885 0.000489768 0)
(-0.0583568 0.00051315 0)
(-0.0610982 0.000547619 0)
(-0.064045 0.000599207 0)
(-0.0672367 0.000676727 0)
(-0.0707213 0.000792093 0)
(-0.074556 0.000959398 0)
(-0.0788047 0.00119279 0)
(-0.0835326 0.00150383 0)
(-0.0887973 0.00189808 0)
(-0.0946383 0.00237205 0)
(-0.101066 0.00291055 0)
(-0.10805 0.00348375 0)
(-0.115504 0.00404518 0)
(-0.123274 0.0045388 0)
(-0.131149 0.00490913 0)
(-0.138868 0.00511242 0)
(-0.146132 0.00511766 0)
(-0.15261 0.00491629 0)
(-0.157995 0.00454309 0)
(-0.162049 0.00406378 0)
(-0.164537 0.00345229 0)
(-0.165232 0.00269361 0)
(-0.164025 0.00178067 0)
(-0.160895 0.000797278 0)
(-0.155767 -0.00023363 0)
(-0.1487 -0.00126043 0)
(-0.139739 -0.00226459 0)
(-0.129042 -0.00320706 0)
(-0.116724 -0.0040692 0)
(-0.102968 -0.00483702 0)
(-0.0880089 -0.00546998 0)
(-0.0719109 -0.00603735 0)
(-0.0551772 -0.00639701 0)
(-0.0375559 -0.00671832 0)
(-0.0199817 -0.00684752 0)
(-0.00160328 -0.00695372 0)
(0.0160208 -0.00688538 0)
(0.0344897 -0.00684776 0)
(0.0514498 -0.0066065 0)
(0.0694987 -0.0064653 0)
(0.0852939 -0.00610951 0)
(0.10261 -0.00592402 0)
(0.116884 -0.00550986 0)
(0.1334 -0.00534061 0)
(0.145938 -0.0049251 0)
(0.161874 -0.00482641 0)
(0.172517 -0.00446691 0)
(0.188517 -0.00448783 0)
(0.196944 -0.00423559 0)
(0.214415 -0.00446775 0)
(0.219653 -0.00434112 0)
(0.241432 -0.00522028 0)
(5.85751e-05 -0.000513395 0)
(-0.000538891 0.000154216 0)
(-0.00205131 0.00072887 0)
(-0.00398319 0.00113324 0)
(-0.00629995 0.00141236 0)
(-0.00892871 0.00163485 0)
(-0.011832 0.00183663 0)
(-0.0149814 0.0020255 0)
(-0.0183475 0.00220131 0)
(-0.021902 0.00236304 0)
(-0.025618 0.00250981 0)
(-0.0294693 0.00264134 0)
(-0.0334314 0.00275781 0)
(-0.0374813 0.00285971 0)
(-0.0415984 0.00294772 0)
(-0.0457638 0.00302273 0)
(-0.0499615 0.0030857 0)
(-0.0541775 0.00313755 0)
(-0.0584002 0.00317924 0)
(-0.0626202 0.00321211 0)
(-0.0668308 0.00323773 0)
(-0.0710279 0.00325788 0)
(-0.0752097 0.00327446 0)
(-0.0793773 0.00328948 0)
(-0.0835343 0.00330505 0)
(-0.0876866 0.00332341 0)
(-0.0918425 0.00334702 0)
(-0.0960131 0.00337855 0)
(-0.100212 0.00342069 0)
(-0.104454 0.0034762 0)
(-0.108756 0.00354777 0)
(-0.113139 0.00363796 0)
(-0.117621 0.00374919 0)
(-0.122224 0.00388402 0)
(-0.126968 0.00404565 0)
(-0.131874 0.00423809 0)
(-0.136962 0.00446565 0)
(-0.142251 0.00473295 0)
(-0.147755 0.00504536 0)
(-0.153485 0.00540872 0)
(-0.159443 0.00582944 0)
(-0.165624 0.00631442 0)
(-0.17201 0.00686994 0)
(-0.178573 0.00749821 0)
(-0.185263 0.00819255 0)
(-0.192011 0.00893414 0)
(-0.198718 0.00968886 0)
(-0.205257 0.0104081 0)
(-0.211475 0.0110319 0)
(-0.217199 0.0114916 0)
(-0.22223 0.0117063 0)
(-0.226347 0.0116003 0)
(-0.229324 0.0111157 0)
(-0.230943 0.0102307 0)
(-0.230983 0.00892906 0)
(-0.229221 0.00718684 0)
(-0.225479 0.00501258 0)
(-0.219798 0.00248359 0)
(-0.211989 -0.000294496 0)
(-0.202134 -0.00325185 0)
(-0.190074 -0.00633451 0)
(-0.175985 -0.00942055 0)
(-0.159772 -0.012485 0)
(-0.141741 -0.0154045 0)
(-0.121811 -0.0181417 0)
(-0.100365 -0.0206145 0)
(-0.0774404 -0.0228272 0)
(-0.0532251 -0.0247792 0)
(-0.0282826 -0.0263857 0)
(-0.00197706 -0.027738 0)
(0.0240407 -0.0286615 0)
(0.0517842 -0.0294121 0)
(0.0777895 -0.0296875 0)
(0.10629 -0.0299022 0)
(0.131434 -0.0295963 0)
(0.160161 -0.0294002 0)
(0.183746 -0.0286316 0)
(0.212329 -0.0281421 0)
(0.233754 -0.0270508 0)
(0.262091 -0.0264192 0)
(0.280851 -0.0251508 0)
(0.30913 -0.024534 0)
(0.324796 -0.02323 0)
(0.353518 -0.0227861 0)
(0.36571 -0.0215786 0)
(0.395705 -0.0214767 0)
(0.404074 -0.0204899 0)
(0.436476 -0.0209571 0)
(0.440713 -0.0203411 0)
(0.476707 -0.0218126 0)
(-0.000164492 0.000437899 0)
(-0.0019678 0.00232003 0)
(-0.00547211 0.00354605 0)
(-0.00945117 0.00436637 0)
(-0.0138695 0.00500638 0)
(-0.018625 0.005573 0)
(-0.0236756 0.00609189 0)
(-0.0289809 0.00656273 0)
(-0.0344866 0.00698069 0)
(-0.0401401 0.00734396 0)
(-0.0458935 0.0076524 0)
(-0.0517036 0.00790799 0)
(-0.0575329 0.00811414 0)
(-0.0633495 0.00827498 0)
(-0.069127 0.00839502 0)
(-0.074844 0.00847909 0)
(-0.0804837 0.00853209 0)
(-0.0860336 0.008559 0)
(-0.0914843 0.00856489 0)
(-0.0968294 0.00855474 0)
(-0.102066 0.00853354 0)
(-0.107195 0.00850632 0)
(-0.112217 0.00847813 0)
(-0.117137 0.00845396 0)
(-0.121962 0.00843863 0)
(-0.126698 0.00843693 0)
(-0.131352 0.00845373 0)
(-0.135934 0.00849388 0)
(-0.140452 0.0085618 0)
(-0.144913 0.00866147 0)
(-0.149325 0.00879621 0)
(-0.153691 0.00896845 0)
(-0.158016 0.0091795 0)
(-0.162295 0.00942971 0)
(-0.166525 0.00971894 0)
(-0.170695 0.0100467 0)
(-0.174791 0.0104113 0)
(-0.17879 0.0108083 0)
(-0.182663 0.0112317 0)
(-0.186371 0.0116736 0)
(-0.189866 0.0121243 0)
(-0.193085 0.0125731 0)
(-0.195959 0.0130084 0)
(-0.198405 0.0134154 0)
(-0.200328 0.0137679 0)
(-0.201624 0.0140295 0)
(-0.20217 0.0141516 0)
(-0.201834 0.0140772 0)
(-0.200478 0.0137421 0)
(-0.19798 0.0130896 0)
(-0.194204 0.0120366 0)
(-0.189033 0.0105116 0)
(-0.182323 0.00844983 0)
(-0.174028 0.00583782 0)
(-0.164111 0.00267358 0)
(-0.15253 -0.000971359 0)
(-0.13921 -0.00512786 0)
(-0.124312 -0.00969612 0)
(-0.107433 -0.0145847 0)
(-0.0891205 -0.0195973 0)
(-0.0689774 -0.024672 0)
(-0.0476622 -0.0296225 0)
(-0.0246359 -0.0344657 0)
(-0.000683536 -0.0389825 0)
(0.0247311 -0.0431938 0)
(0.0509853 -0.0469262 0)
(0.0779573 -0.0502338 0)
(0.105946 -0.053015 0)
(0.133551 -0.0553097 0)
(0.162824 -0.0570905 0)
(0.190207 -0.0582845 0)
(0.220271 -0.0591274 0)
(0.24666 -0.0593001 0)
(0.277019 -0.0593099 0)
(0.301726 -0.058599 0)
(0.332021 -0.0579415 0)
(0.354486 -0.0565415 0)
(0.38453 -0.0554316 0)
(0.404307 -0.0535634 0)
(0.434117 -0.0522433 0)
(0.450876 -0.0501356 0)
(0.480677 -0.0488532 0)
(0.494189 -0.0467248 0)
(0.524408 -0.0457245 0)
(0.534534 -0.0437806 0)
(0.565778 -0.0433137 0)
(0.572457 -0.0417651 0)
(0.605478 -0.0421209 0)
(0.60869 -0.0412236 0)
(0.644282 -0.0427462 0)
(-0.00092451 0.0012453 0)
(-0.00481193 0.0051511 0)
(-0.0107456 0.00763642 0)
(-0.0168265 0.00930127 0)
(-0.0232315 0.0105382 0)
(-0.0299091 0.0115199 0)
(-0.0367733 0.0123194 0)
(-0.0437264 0.0129733 0)
(-0.0506777 0.0134955 0)
(-0.0575549 0.0138979 0)
(-0.0643026 0.0141927 0)
(-0.070877 0.0143916 0)
(-0.077246 0.0145063 0)
(-0.0833869 0.0145481 0)
(-0.0892847 0.0145281 0)
(-0.0949303 0.0144568 0)
(-0.10032 0.014344 0)
(-0.105451 0.0141988 0)
(-0.110328 0.0140293 0)
(-0.114953 0.0138435 0)
(-0.119331 0.0136485 0)
(-0.123468 0.0134513 0)
(-0.127371 0.0132581 0)
(-0.131045 0.0130745 0)
(-0.134495 0.0129055 0)
(-0.137725 0.0127552 0)
(-0.140736 0.0126277 0)
(-0.14353 0.0125264 0)
(-0.146105 0.0124539 0)
(-0.148456 0.0124113 0)
(-0.150575 0.0123988 0)
(-0.152452 0.0124146 0)
(-0.154072 0.0124555 0)
(-0.155414 0.012516 0)
(-0.156454 0.0125897 0)
(-0.157163 0.0126709 0)
(-0.157507 0.0127535 0)
(-0.157448 0.0128253 0)
(-0.15694 0.0128729 0)
(-0.15593 0.0128814 0)
(-0.154358 0.0128332 0)
(-0.152153 0.0127111 0)
(-0.149236 0.0124983 0)
(-0.145536 0.0121819 0)
(-0.140966 0.0117254 0)
(-0.135441 0.0110839 0)
(-0.128864 0.0102047 0)
(-0.121149 0.00903499 0)
(-0.112174 0.00748138 0)
(-0.101948 0.00549581 0)
(-0.0903583 0.00301842 0)
(-0.0774385 3.75333e-05 0)
(-0.0630464 -0.00352221 0)
(-0.0473667 -0.0076496 0)
(-0.0301593 -0.0124073 0)
(-0.0117207 -0.0176494 0)
(0.00834874 -0.0233627 0)
(0.0292475 -0.0292607 0)
(0.0518932 -0.0354191 0)
(0.0750893 -0.0415858 0)
(0.100014 -0.047829 0)
(0.125199 -0.0538218 0)
(0.151936 -0.059684 0)
(0.178789 -0.0650367 0)
(0.206732 -0.0700424 0)
(0.234863 -0.0743814 0)
(0.263346 -0.0782443 0)
(0.292315 -0.0813633 0)
(0.320591 -0.0838718 0)
(0.349927 -0.0856693 0)
(0.377278 -0.0867789 0)
(0.406551 -0.0873138 0)
(0.432327 -0.0871294 0)
(0.461185 -0.086568 0)
(0.484831 -0.085286 0)
(0.513053 -0.0838748 0)
(0.534145 -0.0817581 0)
(0.561663 -0.0797958 0)
(0.579903 -0.077139 0)
(0.606812 -0.0749457 0)
(0.62202 -0.0720486 0)
(0.648575 -0.0699425 0)
(0.660672 -0.0670898 0)
(0.687272 -0.0653755 0)
(0.696252 -0.0628328 0)
(0.723419 -0.0618065 0)
(0.729319 -0.0598345 0)
(0.757671 -0.0598042 0)
(0.760534 -0.0586782 0)
(0.790744 -0.0599664 0)
(-0.00128182 0.00695507 0)
(-0.00687873 0.0138297 0)
(-0.0155101 0.0164666 0)
(-0.0240093 0.0176272 0)
(-0.0325148 0.0184593 0)
(-0.0407801 0.019238 0)
(-0.0486767 0.0199141 0)
(-0.0561639 0.0204106 0)
(-0.0632117 0.0207082 0)
(-0.0697885 0.0208329 0)
(-0.075877 0.0208133 0)
(-0.0814722 0.0206744 0)
(-0.0865788 0.0204384 0)
(-0.0912077 0.0201247 0)
(-0.0953746 0.0197501 0)
(-0.0990977 0.0193295 0)
(-0.102397 0.0188754 0)
(-0.105291 0.018398 0)
(-0.107799 0.0179052 0)
(-0.109937 0.0174051 0)
(-0.111721 0.0169051 0)
(-0.113165 0.016411 0)
(-0.11428 0.0159278 0)
(-0.115074 0.0154596 0)
(-0.115553 0.0150089 0)
(-0.115719 0.0145773 0)
(-0.115571 0.0141653 0)
(-0.115104 0.0137743 0)
(-0.11431 0.0134036 0)
(-0.113178 0.0130503 0)
(-0.111693 0.0127108 0)
(-0.109837 0.0123795 0)
(-0.107586 0.0120489 0)
(-0.104913 0.0117094 0)
(-0.101785 0.0113506 0)
(-0.0981622 0.0109647 0)
(-0.094018 0.0105505 0)
(-0.089302 0.0100845 0)
(-0.0839724 0.00954758 0)
(-0.0779799 0.00892098 0)
(-0.0712648 0.00818215 0)
(-0.0637648 0.00730763 0)
(-0.0553887 0.00626035 0)
(-0.0461275 0.00500952 0)
(-0.0358879 0.00352659 0)
(-0.0246292 0.0017901 0)
(-0.0122296 -0.000255253 0)
(0.0012601 -0.00264206 0)
(0.0160109 -0.00545062 0)
(0.0318405 -0.00871323 0)
(0.0490797 -0.0125253 0)
(0.0673649 -0.0168562 0)
(0.0871842 -0.0217796 0)
(0.107796 -0.0271919 0)
(0.130045 -0.0331413 0)
(0.152743 -0.039456 0)
(0.177197 -0.046236 0)
(0.201713 -0.0531547 0)
(0.228008 -0.06033 0)
(0.254027 -0.0673805 0)
(0.281766 -0.0744665 0)
(0.308923 -0.0811393 0)
(0.337605 -0.0876143 0)
(0.365469 -0.0934137 0)
(0.394506 -0.0987994 0)
(0.422604 -0.103325 0)
(0.451358 -0.107283 0)
(0.479212 -0.110289 0)
(0.507032 -0.112632 0)
(0.5342 -0.114036 0)
(0.560486 -0.114751 0)
(0.586632 -0.114638 0)
(0.610884 -0.113864 0)
(0.635798 -0.11245 0)
(0.657637 -0.110438 0)
(0.681254 -0.108033 0)
(0.700429 -0.10511 0)
(0.722825 -0.102084 0)
(0.739202 -0.0986114 0)
(0.760583 -0.0953485 0)
(0.774123 -0.0916882 0)
(0.794808 -0.088564 0)
(0.805539 -0.0850536 0)
(0.825938 -0.0824182 0)
(0.833921 -0.0793657 0)
(0.854514 -0.0775456 0)
(0.859807 -0.0752353 0)
(0.881127 -0.0745443 0)
(0.883745 -0.0732501 0)
(0.90635 -0.0740057 0)
(-0.00367096 0.00684312 0)
(-0.013479 0.0173001 0)
(-0.0245196 0.0220286 0)
(-0.0336275 0.0246884 0)
(-0.04188 0.0262746 0)
(-0.0494739 0.0271119 0)
(-0.0563707 0.027379 0)
(-0.0624471 0.0272615 0)
(-0.0676134 0.0268957 0)
(-0.0718741 0.0263537 0)
(-0.0752879 0.0256818 0)
(-0.077917 0.0249137 0)
(-0.0798246 0.0240777 0)
(-0.0810708 0.0231964 0)
(-0.0817117 0.0222874 0)
(-0.0817985 0.021365 0)
(-0.0813781 0.0204406 0)
(-0.0804926 0.0195225 0)
(-0.0791751 0.0186135 0)
(-0.0774572 0.017719 0)
(-0.0753636 0.0168433 0)
(-0.0729152 0.0159884 0)
(-0.0701271 0.015155 0)
(-0.0670109 0.0143434 0)
(-0.0635728 0.0135519 0)
(-0.059814 0.0127775 0)
(-0.0557272 0.0120161 0)
(-0.0513084 0.0112685 0)
(-0.0465449 0.0105315 0)
(-0.0414186 0.00979792 0)
(-0.0359098 0.0090605 0)
(-0.0299944 0.0083109 0)
(-0.0236454 0.00753934 0)
(-0.0168306 0.00673329 0)
(-0.00950676 0.00587646 0)
(-0.0016116 0.00494375 0)
(0.0068312 0.00391239 0)
(0.0158976 0.00278094 0)
(0.0256366 0.00153487 0)
(0.036081 0.000151498 0)
(0.0473046 -0.00139943 0)
(0.0593147 -0.00313742 0)
(0.0722264 -0.0050946 0)
(0.0859799 -0.00729979 0)
(0.10076 -0.00980538 0)
(0.11647 -0.0126278 0)
(0.133373 -0.0158187 0)
(0.151172 -0.0193969 0)
(0.170319 -0.0234364 0)
(0.190248 -0.0279038 0)
(0.211672 -0.0328878 0)
(0.233671 -0.0383309 0)
(0.257288 -0.0443377 0)
(0.281164 -0.0507553 0)
(0.306722 -0.0576912 0)
(0.332155 -0.0648885 0)
(0.359284 -0.0724728 0)
(0.38587 -0.08008 0)
(0.414102 -0.0878614 0)
(0.441359 -0.0953827 0)
(0.470159 -0.102837 0)
(0.49756 -0.109736 0)
(0.526336 -0.116324 0)
(0.553321 -0.122087 0)
(0.58145 -0.127331 0)
(0.607472 -0.131551 0)
(0.634352 -0.135112 0)
(0.658934 -0.137545 0)
(0.684045 -0.139268 0)
(0.706841 -0.139864 0)
(0.729791 -0.139782 0)
(0.750621 -0.138673 0)
(0.771164 -0.136984 0)
(0.790013 -0.134447 0)
(0.808034 -0.131471 0)
(0.825026 -0.127884 0)
(0.840518 -0.124019 0)
(0.855891 -0.119812 0)
(0.868924 -0.115478 0)
(0.882998 -0.111085 0)
(0.893686 -0.106689 0)
(0.906836 -0.10252 0)
(0.915302 -0.0984312 0)
(0.927934 -0.0948539 0)
(0.934284 -0.0913957 0)
(0.946821 -0.088738 0)
(0.951108 -0.0861922 0)
(0.963975 -0.0847505 0)
(0.966166 -0.0833665 0)
(0.979781 -0.0834165 0)
(-0.00179951 0.028807 0)
(-0.00957031 0.0405645 0)
(-0.0240361 0.0405025 0)
(-0.0354119 0.0380672 0)
(-0.0444217 0.0361974 0)
(-0.0508241 0.0346894 0)
(-0.054923 0.0331956 0)
(-0.0571201 0.0316416 0)
(-0.0577779 0.0300364 0)
(-0.0571775 0.028406 0)
(-0.0555086 0.026771 0)
(-0.0529226 0.0251469 0)
(-0.0495475 0.0235511 0)
(-0.0454921 0.0219954 0)
(-0.0408481 0.0204857 0)
(-0.035694 0.0190266 0)
(-0.0300954 0.0176198 0)
(-0.0241161 0.0162654 0)
(-0.0177845 0.0149486 0)
(-0.0111467 0.0136746 0)
(-0.00423032 0.0124444 0)
(0.00294358 0.0112549 0)
(0.010361 0.0101017 0)
(0.0180126 0.00898126 0)
(0.0258968 0.00788911 0)
(0.0340143 0.00681896 0)
(0.0423958 0.00575545 0)
(0.0510377 0.00468053 0)
(0.0599553 0.00358636 0)
(0.0691802 0.00246973 0)
(0.0787381 0.00132387 0)
(0.0886614 0.000136337 0)
(0.098983 -0.00110687 0)
(0.109741 -0.00242175 0)
(0.120966 -0.00382481 0)
(0.132713 -0.00533107 0)
(0.144989 -0.00696826 0)
(0.157858 -0.00875736 0)
(0.1714 -0.0107168 0)
(0.185596 -0.0128654 0)
(0.200567 -0.0152322 0)
(0.21624 -0.0178382 0)
(0.232809 -0.0207175 0)
(0.250105 -0.0238787 0)
(0.26843 -0.0273619 0)
(0.287468 -0.0311823 0)
(0.307671 -0.0353971 0)
(0.328506 -0.0399994 0)
(0.350618 -0.0450578 0)
(0.373201 -0.0505291 0)
(0.397131 -0.0564941 0)
(0.421286 -0.0628594 0)
(0.446809 -0.0697126 0)
(0.472215 -0.0768824 0)
(0.498951 -0.0844557 0)
(0.525143 -0.0921734 0)
(0.552575 -0.10013 0)
(0.578973 -0.107985 0)
(0.606489 -0.115856 0)
(0.632448 -0.123336 0)
(0.659393 -0.130586 0)
(0.68426 -0.137148 0)
(0.709993 -0.14325 0)
(0.733166 -0.148404 0)
(0.757115 -0.152915 0)
(0.778106 -0.156287 0)
(0.799828 -0.158915 0)
(0.818316 -0.160309 0)
(0.837543 -0.160954 0)
(0.853411 -0.160377 0)
(0.870071 -0.159142 0)
(0.883402 -0.156794 0)
(0.897586 -0.153952 0)
(0.908613 -0.15018 0)
(0.920517 -0.146123 0)
(0.929566 -0.141363 0)
(0.93944 -0.136542 0)
(0.946885 -0.131262 0)
(0.954989 -0.126133 0)
(0.961211 -0.120783 0)
(0.967778 -0.115767 0)
(0.973138 -0.110755 0)
(0.978352 -0.106219 0)
(0.983182 -0.101898 0)
(0.987161 -0.0981535 0)
(0.991756 -0.094824 0)
(0.994533 -0.0921321 0)
(0.999153 -0.0900513 0)
(1.00065 -0.0886247 0)
(1.00552 -0.0880084 0)
(-0.0195774 0.00828358 0)
(-0.0377953 0.031896 0)
(-0.0409961 0.0392095 0)
(-0.0431027 0.0399889 0)
(-0.0420109 0.0383199 0)
(-0.0385919 0.0355598 0)
(-0.0333032 0.0324947 0)
(-0.0264935 0.0294577 0)
(-0.0184068 0.026541 0)
(-0.00934815 0.02382 0)
(0.000519413 0.0212658 0)
(0.0110114 0.0188619 0)
(0.0219796 0.0166033 0)
(0.033308 0.0144833 0)
(0.0449101 0.0124912 0)
(0.0567076 0.0106185 0)
(0.0686533 0.00885722 0)
(0.0806461 0.0072084 0)
(0.0927517 0.00567047 0)
(0.104901 0.00421799 0)
(0.117076 0.00282475 0)
(0.129274 0.00147495 0)
(0.141495 0.000158897 0)
(0.153744 -0.00113379 0)
(0.166041 -0.00241407 0)
(0.178379 -0.00369322 0)
(0.190801 -0.00498002 0)
(0.203325 -0.00628862 0)
(0.215981 -0.00763421 0)
(0.228816 -0.00903269 0)
(0.241863 -0.0104966 0)
(0.255159 -0.012043 0)
(0.268744 -0.0136862 0)
(0.282656 -0.0154462 0)
(0.296942 -0.0173372 0)
(0.31163 -0.0193806 0)
(0.326785 -0.0215831 0)
(0.342406 -0.0239696 0)
(0.358593 -0.0265618 0)
(0.375301 -0.0293844 0)
(0.392667 -0.0324574 0)
(0.410582 -0.0358031 0)
(0.429239 -0.0394435 0)
(0.448445 -0.0433964 0)
(0.468465 -0.0476879 0)
(0.488989 -0.0523296 0)
(0.510378 -0.0573514 0)
(0.532164 -0.0627464 0)
(0.554822 -0.0685455 0)
(0.577689 -0.0747127 0)
(0.601385 -0.0812763 0)
(0.62501 -0.088158 0)
(0.649368 -0.0953808 0)
(0.673281 -0.10281 0)
(0.697788 -0.110461 0)
(0.721387 -0.118137 0)
(0.745414 -0.125859 0)
(0.768004 -0.13336 0)
(0.790874 -0.140685 0)
(0.811758 -0.147507 0)
(0.832831 -0.15392 0)
(0.851393 -0.159548 0)
(0.870146 -0.164565 0)
(0.885932 -0.168559 0)
(0.90203 -0.171807 0)
(0.914806 -0.173873 0)
(0.928139 -0.175149 0)
(0.937906 -0.175179 0)
(0.948581 -0.174477 0)
(0.955559 -0.172563 0)
(0.963871 -0.170064 0)
(0.968443 -0.166474 0)
(0.974798 -0.162518 0)
(0.977424 -0.157652 0)
(0.982255 -0.152675 0)
(0.983395 -0.146996 0)
(0.987101 -0.141462 0)
(0.987165 -0.135436 0)
(0.990073 -0.129791 0)
(0.989392 -0.123845 0)
(0.991741 -0.118485 0)
(0.990565 -0.11299 0)
(0.992504 -0.108251 0)
(0.991003 -0.10352 0)
(0.992598 -0.0996802 0)
(0.990879 -0.0959722 0)
(0.99211 -0.0932571 0)
(0.990228 -0.0907817 0)
(0.990988 -0.0893673 0)
(0.988955 -0.0882848 0)
(-0.0189385 0.107826 0)
(-0.0181772 0.0727204 0)
(-0.0113599 0.0580263 0)
(0.00106681 0.046139 0)
(0.0173159 0.0363362 0)
(0.0356915 0.0288144 0)
(0.0552631 0.0229176 0)
(0.0752472 0.018095 0)
(0.0955498 0.0139623 0)
(0.115518 0.0103381 0)
(0.13536 0.00714722 0)
(0.154918 0.00434092 0)
(0.174113 0.00184719 0)
(0.192915 -0.000395449 0)
(0.211328 -0.0024298 0)
(0.229324 -0.00428666 0)
(0.246938 -0.00598944 0)
(0.264127 -0.00756034 0)
(0.280965 -0.00901779 0)
(0.297425 -0.0103826 0)
(0.313522 -0.0116804 0)
(0.329289 -0.0129363 0)
(0.344762 -0.0141707 0)
(0.359973 -0.0154032 0)
(0.374963 -0.0166512 0)
(0.389758 -0.0179324 0)
(0.404408 -0.0192587 0)
(0.418963 -0.0206407 0)
(0.433459 -0.0220884 0)
(0.447948 -0.0236214 0)
(0.462469 -0.0252545 0)
(0.477071 -0.0270086 0)
(0.491794 -0.0288968 0)
(0.506682 -0.0309397 0)
(0.521774 -0.0331481 0)
(0.537104 -0.0355433 0)
(0.552712 -0.0381346 0)
(0.568616 -0.0409454 0)
(0.58486 -0.0439862 0)
(0.601439 -0.0472812 0)
(0.618404 -0.0508381 0)
(0.635713 -0.0546796 0)
(0.653428 -0.0588103 0)
(0.671462 -0.0632499 0)
(0.689894 -0.0679996 0)
(0.708573 -0.0730743 0)
(0.727605 -0.0784712 0)
(0.746748 -0.0841955 0)
(0.766151 -0.0902346 0)
(0.785455 -0.0965731 0)
(0.804877 -0.103183 0)
(0.823909 -0.11002 0)
(0.842876 -0.11704 0)
(0.861088 -0.124158 0)
(0.879033 -0.131318 0)
(0.895795 -0.138392 0)
(0.91211 -0.14532 0)
(0.926792 -0.15193 0)
(0.940924 -0.158178 0)
(0.95299 -0.163852 0)
(0.964532 -0.168956 0)
(0.973622 -0.173247 0)
(0.982379 -0.176809 0)
(0.988375 -0.179369 0)
(0.994412 -0.181123 0)
(0.997453 -0.181763 0)
(1.00108 -0.18162 0)
(1.00152 -0.180338 0)
(1.00321 -0.178393 0)
(1.00157 -0.175358 0)
(1.00189 -0.171857 0)
(0.998692 -0.16738 0)
(0.998195 -0.162692 0)
(0.99394 -0.157177 0)
(0.993078 -0.151731 0)
(0.988158 -0.145612 0)
(0.987265 -0.139834 0)
(0.981948 -0.133526 0)
(0.981229 -0.127808 0)
(0.975665 -0.121682 0)
(0.97522 -0.116365 0)
(0.969462 -0.11074 0)
(0.969309 -0.10611 0)
(0.963341 -0.101253 0)
(0.963438 -0.0975497 0)
(0.95719 -0.093681 0)
(0.957446 -0.0910932 0)
(0.950805 -0.0883853 0)
(0.951074 -0.087052 0)
(0.943898 -0.0856268 0)
(0.0697515 0.00703991 0)
(0.089622 0.00654571 0)
(0.153164 0.00611045 0)
(0.197914 0.00296428 0)
(0.236576 -0.00128909 0)
(0.271677 -0.00535598 0)
(0.304084 -0.00885191 0)
(0.333574 -0.0117942 0)
(0.361012 -0.0142971 0)
(0.386547 -0.0164364 0)
(0.410635 -0.0182967 0)
(0.433426 -0.0199272 0)
(0.455032 -0.0213681 0)
(0.475561 -0.0226499 0)
(0.495118 -0.023797 0)
(0.513781 -0.0248267 0)
(0.531623 -0.0257593 0)
(0.548702 -0.0266123 0)
(0.565078 -0.0274139 0)
(0.580804 -0.0281839 0)
(0.595928 -0.0289391 0)
(0.610507 -0.0296993 0)
(0.624592 -0.0304837 0)
(0.638242 -0.031312 0)
(0.651505 -0.0322008 0)
(0.664435 -0.0331666 0)
(0.677081 -0.0342235 0)
(0.689503 -0.0353868 0)
(0.701736 -0.0366677 0)
(0.713835 -0.038082 0)
(0.725829 -0.0396408 0)
(0.737772 -0.0413604 0)
(0.749687 -0.0432505 0)
(0.761624 -0.0453284 0)
(0.773594 -0.047603 0)
(0.785637 -0.050092 0)
(0.797756 -0.052802 0)
(0.809981 -0.0557502 0)
(0.822302 -0.0589411 0)
(0.834739 -0.0623918 0)
(0.847267 -0.0661032 0)
(0.859889 -0.0700911 0)
(0.872566 -0.0743507 0)
(0.885281 -0.0788954 0)
(0.89798 -0.0837129 0)
(0.91062 -0.0888126 0)
(0.923132 -0.094173 0)
(0.935437 -0.099796 0)
(0.947467 -0.105645 0)
(0.959096 -0.111708 0)
(0.970268 -0.117928 0)
(0.9808 -0.124274 0)
(0.99068 -0.130668 0)
(0.999651 -0.137058 0)
(1.00779 -0.143344 0)
(1.01474 -0.149452 0)
(1.02075 -0.155269 0)
(1.02533 -0.160706 0)
(1.02895 -0.165659 0)
(1.03095 -0.170028 0)
(1.03215 -0.173745 0)
(1.0316 -0.176706 0)
(1.03058 -0.178903 0)
(1.02771 -0.180224 0)
(1.02489 -0.180749 0)
(1.02013 -0.18034 0)
(1.01608 -0.179192 0)
(1.00993 -0.177117 0)
(1.00525 -0.174441 0)
(0.998204 -0.170892 0)
(0.993424 -0.166951 0)
(0.985828 -0.16222 0)
(0.981332 -0.157355 0)
(0.973405 -0.151787 0)
(0.969433 -0.146363 0)
(0.961261 -0.140312 0)
(0.957926 -0.134685 0)
(0.949489 -0.128486 0)
(0.946818 -0.122987 0)
(0.938031 -0.116946 0)
(0.936002 -0.111873 0)
(0.926744 -0.106264 0)
(0.925314 -0.101875 0)
(0.915443 -0.0969334 0)
(0.914555 -0.0934476 0)
(0.903906 -0.0893714 0)
(0.903484 -0.086961 0)
(0.891864 -0.0839001 0)
(0.891792 -0.0826764 0)
(0.878983 -0.0807196 0)
(0.773364 -0.0090817 0)
(0.774831 -0.0204438 0)
(0.77558 -0.0266046 0)
(0.777159 -0.0302482 0)
(0.78069 -0.0328468 0)
(0.785948 -0.0349941 0)
(0.79265 -0.036819 0)
(0.800172 -0.0382834 0)
(0.808279 -0.0394104 0)
(0.816768 -0.0402307 0)
(0.825459 -0.0408232 0)
(0.834221 -0.0412561 0)
(0.842955 -0.0415731 0)
(0.851588 -0.0418005 0)
(0.860067 -0.0419566 0)
(0.86835 -0.0420566 0)
(0.876406 -0.0421162 0)
(0.884215 -0.0421523 0)
(0.891764 -0.0421843 0)
(0.899052 -0.0422316 0)
(0.90608 -0.0423128 0)
(0.912863 -0.042447 0)
(0.919412 -0.0426532 0)
(0.92575 -0.0429499 0)
(0.931896 -0.043354 0)
(0.937876 -0.0438815 0)
(0.943712 -0.0445478 0)
(0.94943 -0.045368 0)
(0.955049 -0.0463542 0)
(0.960592 -0.0475181 0)
(0.966073 -0.0488689 0)
(0.971514 -0.0504167 0)
(0.976923 -0.0521693 0)
(0.982317 -0.0541366 0)
(0.987694 -0.0563254 0)
(0.993066 -0.0587449 0)
(0.998421 -0.0613999 0)
(1.00377 -0.0642984 0)
(1.00907 -0.0674429 0)
(1.01435 -0.0708399 0)
(1.01955 -0.0744891 0)
(1.02466 -0.0783945 0)
(1.02963 -0.0825505 0)
(1.03445 -0.0869576 0)
(1.03904 -0.091603 0)
(1.04338 -0.0964811 0)
(1.04739 -0.101568 0)
(1.05102 -0.106849 0)
(1.05418 -0.112286 0)
(1.05685 -0.117854 0)
(1.05891 -0.123496 0)
(1.06033 -0.129177 0)
(1.06103 -0.13482 0)
(1.06097 -0.140378 0)
(1.0601 -0.145756 0)
(1.05838 -0.150902 0)
(1.05584 -0.155709 0)
(1.05243 -0.160127 0)
(1.04825 -0.16405 0)
(1.04325 -0.167439 0)
(1.03767 -0.170201 0)
(1.03132 -0.172315 0)
(1.02468 -0.173712 0)
(1.01733 -0.17439 0)
(1.01005 -0.174323 0)
(1.00203 -0.173514 0)
(0.994529 -0.171998 0)
(0.986097 -0.169764 0)
(0.978668 -0.166926 0)
(0.969924 -0.163424 0)
(0.96274 -0.159479 0)
(0.953636 -0.154933 0)
(0.946768 -0.150146 0)
(0.937162 -0.144814 0)
(0.930643 -0.139484 0)
(0.920361 -0.133647 0)
(0.914233 -0.128088 0)
(0.903096 -0.122032 0)
(0.897437 -0.116559 0)
(0.885278 -0.110562 0)
(0.880215 -0.105482 0)
(0.866871 -0.099802 0)
(0.862566 -0.0953947 0)
(0.847844 -0.0902528 0)
(0.844473 -0.0867555 0)
(0.828119 -0.0823256 0)
(0.825851 -0.0799227 0)
(0.807536 -0.0763207 0)
(0.80651 -0.0751185 0)
(0.785831 -0.0723784 0)
(1.057 0.00845576 0)
(1.06007 0.000126526 0)
(1.06075 -0.00697249 0)
(1.05996 -0.0125688 0)
(1.05904 -0.0171364 0)
(1.05869 -0.021082 0)
(1.05904 -0.0245812 0)
(1.05995 -0.0276438 0)
(1.06119 -0.0302656 0)
(1.06263 -0.0324639 0)
(1.06415 -0.0342818 0)
(1.06573 -0.0357725 0)
(1.06732 -0.0369879 0)
(1.06891 -0.0379734 0)
(1.07048 -0.038768 0)
(1.07201 -0.039406 0)
(1.07347 -0.0399192 0)
(1.07486 -0.0403382 0)
(1.07615 -0.040693 0)
(1.07735 -0.0410131 0)
(1.07846 -0.041327 0)
(1.07946 -0.0416619 0)
(1.08037 -0.0420436 0)
(1.08119 -0.0424962 0)
(1.08193 -0.043042 0)
(1.0826 -0.0437014 0)
(1.0832 -0.0444931 0)
(1.08374 -0.0454339 0)
(1.08423 -0.0465383 0)
(1.08467 -0.0478184 0)
(1.08507 -0.0492849 0)
(1.08543 -0.0509464 0)
(1.08575 -0.0528109 0)
(1.08602 -0.0548846 0)
(1.08624 -0.0571729 0)
(1.0864 -0.0596798 0)
(1.0865 -0.0624093 0)
(1.08653 -0.0653636 0)
(1.08646 -0.0685447 0)
(1.08628 -0.0719526 0)
(1.08597 -0.0755865 0)
(1.08551 -0.0794431 0)
(1.08487 -0.0835175 0)
(1.08403 -0.0878012 0)
(1.08295 -0.092283 0)
(1.08161 -0.0969477 0)
(1.07996 -0.101775 0)
(1.078 -0.106741 0)
(1.07566 -0.111815 0)
(1.07295 -0.116963 0)
(1.06981 -0.122142 0)
(1.06625 -0.127306 0)
(1.06222 -0.1324 0)
(1.05775 -0.137369 0)
(1.05279 -0.142145 0)
(1.04739 -0.146671 0)
(1.04152 -0.150872 0)
(1.03524 -0.154698 0)
(1.02854 -0.158071 0)
(1.02148 -0.160955 0)
(1.01405 -0.163271 0)
(1.00631 -0.165004 0)
(0.998256 -0.166077 0)
(0.98989 -0.166501 0)
(0.981266 -0.166213 0)
(0.972248 -0.165254 0)
(0.963033 -0.163581 0)
(0.953248 -0.161268 0)
(0.943374 -0.158298 0)
(0.932649 -0.154752 0)
(0.922053 -0.150646 0)
(0.910214 -0.146045 0)
(0.898905 -0.14102 0)
(0.885826 -0.135593 0)
(0.873936 -0.129937 0)
(0.859567 -0.123975 0)
(0.847369 -0.118025 0)
(0.83171 -0.111837 0)
(0.819588 -0.105945 0)
(0.802628 -0.0998309 0)
(0.791054 -0.0943415 0)
(0.772707 -0.088563 0)
(0.762214 -0.0837877 0)
(0.742239 -0.0785413 0)
(0.733407 -0.0747388 0)
(0.71133 -0.070139 0)
(0.704808 -0.0675116 0)
(0.679869 -0.0635887 0)
(0.676428 -0.062268 0)
(0.647555 -0.0589558 0)
(1.0818 -0.00307641 0)
(1.08776 -0.0106073 0)
(1.09207 -0.0178895 0)
(1.09474 -0.0239269 0)
(1.09628 -0.028576 0)
(1.09727 -0.0321619 0)
(1.09812 -0.0350428 0)
(1.09899 -0.0374457 0)
(1.09987 -0.0394631 0)
(1.10071 -0.0411227 0)
(1.10147 -0.0424379 0)
(1.10213 -0.0434339 0)
(1.1027 -0.0441493 0)
(1.10319 -0.04463 0)
(1.1036 -0.0449219 0)
(1.10393 -0.0450674 0)
(1.10419 -0.0451049 0)
(1.10436 -0.0450696 0)
(1.10445 -0.044994 0)
(1.10444 -0.0449094 0)
(1.10435 -0.0448452 0)
(1.10416 -0.044829 0)
(1.10388 -0.0448864 0)
(1.10351 -0.0450409 0)
(1.10305 -0.0453137 0)
(1.10251 -0.0457237 0)
(1.10189 -0.0462874 0)
(1.10119 -0.0470192 0)
(1.10042 -0.0479312 0)
(1.09957 -0.0490333 0)
(1.09864 -0.0503336 0)
(1.09764 -0.0518381 0)
(1.09656 -0.0535518 0)
(1.09539 -0.055478 0)
(1.09414 -0.0576193 0)