/*--------------------------------*- C++ -*----------------------------------*\
| =========                 |                                                 |
| \\      /  F ield         | OpenFOAM: The Open Source CFD Toolbox           |
|  \\    /   O peration     | Version:  2306                                  |
|   \\  /    A nd           | Website:  www.openfoam.com                      |
|    \\/     M anipulation  |                                                 |
\*---------------------------------------------------------------------------*/
FoamFile
{
    version     2.0;
    format      ascii;
    arch        "LSB;label=32;scalar=64";
    class       volScalarField;
    location    "8";
    object      p;
}
// * * * * * * * * * * * * * * * * * * * * * * * * * * * * * * * * * * * * * //

dimensions      [0 2 -2 0 0 0 0];

internalField   nonuniform List<scalar> 
1900
(
0.053182
0.0289647
0.00857651
-0.006758
-0.0177701
-0.0283127
-0.0387374
-0.0508775
-0.0634007
-0.0774115
0.0239208
0.0157236
0.0044113
-0.00713613
-0.0181529
-0.0283305
-0.0387491
-0.0492446
-0.0607196
-0.0717544
0.014823
0.0103336
0.00282076
-0.00654326
-0.0166213
-0.0265934
-0.0363645
-0.0459077
-0.0553238
-0.0643945
0.00911664
0.00604405
0.000395955
-0.00724976
-0.0160977
-0.0253336
-0.0345193
-0.0434273
-0.0520135
-0.0601686
0.00688607
0.00435091
-0.000387316
-0.00703481
-0.0150128
-0.0236153
-0.0322891
-0.040712
-0.0487363
-0.0562736
0.00751383
0.00503268
0.000421154
-0.00604514
-0.0137854
-0.0220915
-0.0304051
-0.0384095
-0.0459813
-0.0530921
0.0109633
0.00801633
0.00273337
-0.00435258
-0.0124169
-0.0207093
-0.0287646
-0.0364058
-0.0436253
-0.0504586
0.0176571
0.0133603
0.0064599
-0.00201316
-0.0108391
-0.0192715
-0.0271151
-0.0344641
-0.0414684
-0.0481908
0.0277935
0.0196927
0.00925344
-0.00121269
-0.010527
-0.0186484
-0.0260297
-0.0330941
-0.0400059
-0.0467253
0.0566418
0.0339675
0.0142568
0.000188259
-0.00947714
-0.0171829
-0.0244257
-0.0316611
-0.0388396
-0.0457564
-0.100541
-0.100575
-0.10062
-0.100674
-0.100734
-0.1008
-0.100871
-0.100946
-0.101024
-0.101103
-0.101181
-0.101257
-0.101328
-0.101394
-0.101451
-0.101498
-0.101534
-0.101557
-0.101565
-0.101556
-0.101531
-0.101487
-0.101423
-0.101338
-0.101233
-0.101105
-0.100955
-0.100781
-0.100585
-0.100364
-0.100118
-0.0998479
-0.0995516
-0.0992286
-0.098878
-0.0984982
-0.0980875
-0.0976437
-0.0971636
-0.0966433
-0.0960773
-0.0954586
-0.094778
-0.0940234
-0.0931795
-0.0922271
-0.0911432
-0.0899015
-0.0884722
-0.0868231
-0.0849188
-0.0827212
-0.0801898
-0.0772817
-0.0739514
-0.0701557
-0.0658609
-0.0610435
-0.0556891
-0.04981
-0.0434457
-0.0366509
-0.0295019
-0.0220999
-0.0145624
-0.00701696
0.00040286
0.00756566
0.0143401
0.020619
0.0262869
0.0312808
0.0355195
0.0389888
0.0416369
0.0434931
0.044542
0.0448411
0.0443919
0.0432772
0.0415007
0.0391591
0.0362445
0.0328613
0.0289725
0.0246951
0.0199336
0.0148464
0.00921406
0.00334467
-0.100536
-0.100568
-0.100595
-0.100636
-0.100687
-0.100747
-0.100812
-0.100883
-0.100957
-0.101033
-0.101108
-0.101182
-0.101252
-0.101315
-0.101372
-0.101418
-0.101454
-0.101476
-0.101484
-0.101476
-0.101451
-0.101407
-0.101343
-0.101259
-0.101154
-0.101026
-0.100875
-0.100701
-0.100503
-0.10028
-0.100032
-0.0997589
-0.0994588
-0.0991314
-0.0987752
-0.0983889
-0.0979705
-0.0975178
-0.0970275
-0.0964957
-0.0959171
-0.0952851
-0.0945912
-0.0938247
-0.0929725
-0.092018
-0.0909412
-0.0897185
-0.0883231
-0.0867251
-0.0848895
-0.0827764
-0.0803406
-0.0775339
-0.0743039
-0.0705989
-0.0663818
-0.0616453
-0.056377
-0.0505787
-0.0442716
-0.0375157
-0.0303894
-0.0229962
-0.0154558
-0.00789771
-0.000462103
0.00672017
0.0135049
0.0198113
0.0254841
0.0304913
0.0347353
0.0382117
0.0408649
0.0427296
0.0437816
0.0440919
0.0436484
0.0425512
0.040785
0.0384704
0.0355725
0.0322273
0.0283642
0.0241348
0.0194169
0.0143868
0.00887314
0.0031252
-0.100419
-0.1005
-0.100546
-0.100599
-0.100655
-0.100716
-0.100784
-0.100857
-0.100933
-0.101011
-0.10109
-0.101167
-0.10124
-0.101308
-0.101368
-0.101418
-0.101458
-0.101483
-0.101495
-0.10149
-0.101467
-0.101425
-0.101363
-0.10128
-0.101175
-0.101048
-0.100897
-0.100723
-0.100524
-0.1003
-0.100051
-0.0997771
-0.0994765
-0.0991487
-0.0987927
-0.0984071
-0.0979904
-0.0975402
-0.0970537
-0.0965268
-0.0959544
-0.0953296
-0.0946445
-0.0938897
-0.0930539
-0.0921237
-0.0910817
-0.0899062
-0.0885713
-0.0870492
-0.0853043
-0.0832917
-0.0809588
-0.0782578
-0.0751406
-0.07155
-0.067429
-0.0627422
-0.0574884
-0.0516873
-0.0453708
-0.0386052
-0.0314672
-0.0240538
-0.0165105
-0.00895659
-0.00153759
0.00563166
0.0123979
0.0186747
0.0243245
0.0293017
0.0335148
0.0369599
0.0395836
0.0414231
0.042455
0.0427536
0.0423085
0.0412204
0.0394782
0.0371989
0.0343574
0.0310791
0.0273139
0.0231919
0.0186324
0.0137745
0.00851616
0.00302064
-0.1005
-0.100574
-0.100579
-0.100605
-0.100651
-0.100713
-0.100786
-0.100866
-0.100951
-0.101039
-0.101126
-0.101211
-0.101292
-0.101366
-0.101432
-0.101488
-0.101532
-0.101561
-0.101575
-0.101572
-0.101551
-0.10151
-0.101448
-0.101365
-0.101259
-0.10113
-0.100977
-0.1008
-0.100598
-0.100372
-0.10012
-0.0998423
-0.0995391
-0.0992094
-0.0988521
-0.0984661
-0.0980501
-0.0976021
-0.0971196
-0.0965987
-0.0960344
-0.0954198
-0.094747
-0.0940084
-0.093195
-0.0922947
-0.0912915
-0.0901641
-0.0888851
-0.0874305
-0.0857635
-0.083836
-0.0815886
-0.078961
-0.0758903
-0.0723366
-0.0682453
-0.0635925
-0.0583685
-0.0525951
-0.0463063
-0.0395723
-0.0324769
-0.025126
-0.017654
-0.0101868
-0.00286958
0.00417984
0.0108182
0.0169534
0.0224669
0.027305
0.0313904
0.0347144
0.0372368
0.0389902
0.0399634
0.0402236
0.0397744
0.0387053
0.0370213
0.0348233
0.0321067
0.0289754
0.0254081
0.0215085
0.0172353
0.0126939
0.00782423
0.00273961
-0.100177
-0.100382
-0.100473
-0.100576
-0.100675
-0.100768
-0.100861
-0.100956
-0.101053
-0.10115
-0.101246
-0.101339
-0.101426
-0.101505
-0.101575
-0.101633
-0.101678
-0.101708
-0.101722
-0.101718
-0.101694
-0.10165
-0.101585
-0.101498
-0.101388
-0.101255
-0.101097
-0.100915
-0.100708
-0.100477
-0.100221
-0.0999407
-0.0996354
-0.0993046
-0.0989472
-0.0985618
-0.0981477
-0.0977033
-0.097226
-0.0967122
-0.0961567
-0.0955523
-0.0948907
-0.0941678
-0.0933753
-0.0924997
-0.0915238
-0.0904324
-0.0891872
-0.0877564
-0.0861021
-0.0841831
-0.0819378
-0.079313
-0.0762443
-0.0726883
-0.0685965
-0.0639516
-0.058748
-0.0530124
-0.0467862
-0.0401416
-0.0331678
-0.0259735
-0.0186854
-0.0114322
-0.00435067
0.00243876
0.00880989
0.0146674
0.0199131
0.0244903
0.028339
0.0314473
0.033792
0.0354004
0.0362772
0.0364801
0.036029
0.0349993
0.0334139
0.0313551
0.028839
0.0259481
0.0226858
0.0191325
0.0152767
0.0111986
0.00687333
0.00238919
-0.101008
-0.101031
-0.10093
-0.100885
-0.100895
-0.100953
-0.101041
-0.101142
-0.101244
-0.101345
-0.101443
-0.101535
-0.10162
-0.101696
-0.101761
-0.101814
-0.101853
-0.101877
-0.101884
-0.101873
-0.101843
-0.101792
-0.10172
-0.101626
-0.10151
-0.101371
-0.101207
-0.10102
-0.100809
-0.100574
-0.100315
-0.100032
-0.0997243
-0.0993924
-0.0990343
-0.0986485
-0.098237
-0.0977971
-0.0973252
-0.0968176
-0.0962693
-0.0956737
-0.0950208
-0.0942996
-0.0935023
-0.0926192
-0.091631
-0.0905174
-0.0892459
-0.0877857
-0.0860932
-0.084126
-0.0818257
-0.0791419
-0.0760171
-0.0724121
-0.0682904
-0.0636409
-0.0584656
-0.0527967
-0.0466826
-0.0401997
-0.0334391
-0.0265115
-0.0195358
-0.0126379
-0.00594173
0.000436634
0.00638929
0.0118256
0.0166669
0.0208601
0.0243641
0.0271674
0.0292647
0.0306797
0.0314331
0.0315736
0.0311358
0.0301814
0.0287476
0.0268997
0.024669
0.0221188
0.0192702
0.0161828
0.0128666
0.00938032
0.00572493
0.00196311
-0.0996874
-0.100331
-0.100534
-0.100789
-0.101004
-0.101166
-0.101288
-0.101388
-0.101481
-0.101569
-0.101652
-0.10173
-0.1018
-0.101861
-0.101913
-0.101953
-0.101979
-0.101992
-0.101989
-0.101969
-0.101931
-0.101873
-0.101794
-0.101694
-0.101572
-0.101428
-0.10126
-0.101069
-0.100855
-0.100617
-0.100357
-0.100073
-0.0997656
-0.0994342
-0.0990772
-0.0986911
-0.0982725
-0.0978236
-0.0973412
-0.0968205
-0.0962545
-0.0956364
-0.0949562
-0.0942051
-0.093371
-0.0924414
-0.0913953
-0.090211
-0.0888568
-0.0872998
-0.0854978
-0.0834096
-0.0809853
-0.0781805
-0.0749493
-0.0712608
-0.0670909
-0.0624375
-0.0573128
-0.0517559
-0.0458214
-0.0395893
-0.0331501
-0.0266126
-0.0200871
-0.0136915
-0.00753352
-0.0017171
0.00367062
0.00855119
0.0128666
0.0165729
0.0196481
0.0220849
0.0238938
0.0250968
0.0257269
0.0258249
0.0254351
0.0246063
0.0233846
0.0218189
0.0199504
0.0178241
0.015473
0.0129369
0.0102408
0.00742192
0.00449909
0.00151123
-0.104393
-0.103014
-0.102386
-0.101952
-0.101725
-0.101635
-0.101623
-0.101647
-0.101686
-0.101732
-0.101781
-0.10183
-0.101877
-0.10192
-0.101956
-0.101983
-0.102
-0.102005
-0.101994
-0.101966
-0.101921
-0.101858
-0.101775
-0.101672
-0.101549
-0.101404
-0.101236
-0.101041
-0.10082
-0.100576
-0.100307
-0.100013
-0.0996924
-0.099344
-0.0989659
-0.0985558
-0.0981113
-0.0976303
-0.0971089
-0.0965414
-0.0959202
-0.0952373
-0.0944822
-0.093644
-0.0927087
-0.0916617
-0.0904826
-0.0891489
-0.0876309
-0.0858972
-0.0839105
-0.0816341
-0.0790282
-0.0760579
-0.0726918
-0.068911
-0.064705
-0.0600829
-0.0550667
-0.049702
-0.0440464
-0.0381797
-0.0321877
-0.0261725
-0.0202321
-0.0144718
-0.00898131
-0.00384773
0.000865298
0.00509652
0.00880963
0.0119733
0.0145828
0.0166361
0.0181557
0.0191613
0.0196933
0.0197837
0.0194817
0.018823
0.0178582
0.0166205
0.0151569
0.0134948
0.0116753
0.00971953
0.00766296
0.00552155
0.00332549
0.00108724
-0.0985595
-0.0996402
-0.100476
-0.101087
-0.101403
-0.101522
-0.101557
-0.101572
-0.101587
-0.101617
-0.101656
-0.101696
-0.101735
-0.101773
-0.101805
-0.101831
-0.101847
-0.101856
-0.101855
-0.101835
-0.101795
-0.101733
-0.101649
-0.101542
-0.101411
-0.101255
-0.101073
-0.100864
-0.100625
-0.100357
-0.100058
-0.0997277
-0.0993639
-0.0989651
-0.0985291
-0.0980528
-0.0975325
-0.0969642
-0.096343
-0.0956626
-0.0949153
-0.0940919
-0.0931814
-0.092172
-0.0910496
-0.0897993
-0.088403
-0.0868398
-0.0850849
-0.0831119
-0.0808918
-0.0783964
-0.0755973
-0.0724711
-0.068998
-0.0651702
-0.0609909
-0.0564801
-0.051669
-0.0466072
-0.0413527
-0.0359802
-0.0305667
-0.0252006
-0.0199626
-0.0149387
-0.010197
-0.00580712
-0.00181293
0.00174203
0.00484171
0.0074669
0.00962653
0.0113217
0.0125821
0.0134231
0.0138885
0.0140005
0.0138104
0.0133408
0.012645
0.011741
0.0106804
0.0094736
0.00816882
0.00676776
0.00531599
0.00380751
0.00228463
0.000731503
-0.121201
-0.106305
-0.104381
-0.102905
-0.10199
-0.101561
-0.101386
-0.101325
-0.101309
-0.101314
-0.101355
-0.101415
-0.101479
-0.10154
-0.101596
-0.101644
-0.101681
-0.101704
-0.101709
-0.10169
-0.101645
-0.101571
-0.101467
-0.101331
-0.101163
-0.100964
-0.100732
-0.100466
-0.100163
-0.0998211
-0.0994376
-0.0990112
-0.0985403
-0.0980233
-0.0974574
-0.0968394
-0.0961653
-0.0954306
-0.0946299
-0.0937571
-0.0928047
-0.0917642
-0.0906254
-0.0893773
-0.0880072
-0.0865
-0.0848396
-0.0830089
-0.0809896
-0.078763
-0.0763096
-0.0736116
-0.0706533
-0.0674238
-0.0639176
-0.0601389
-0.0561011
-0.0518301
-0.0473599
-0.0427375
-0.0380148
-0.0332553
-0.0285223
-0.023887
-0.0194117
-0.0151622
-0.011187
-0.00753734
-0.00424163
-0.00132873
0.00119961
0.00333331
0.00508908
0.00646917
0.00750606
0.00821099
0.00862851
0.00877284
0.00869548
0.00840794
0.00796528
0.00737176
0.00668356
0.00589395
0.00505927
0.00415957
0.00325245
0.00230476
0.001377
0.000418275
-0.0888151
-0.0952484
-0.0977548
-0.098604
-0.0990591
-0.0994684
-0.0998476
-0.100167
-0.100444
-0.100685
-0.100893
-0.101071
-0.101223
-0.101353
-0.101463
-0.101552
-0.101618
-0.101654
-0.101658
-0.101624
-0.10155
-0.101432
-0.101269
-0.101062
-0.100809
-0.10051
-0.100167
-0.0997767
-0.0993384
-0.09885
-0.09831
-0.0977168
-0.0970682
-0.0963613
-0.0955936
-0.0947619
-0.0938628
-0.0928922
-0.0918451
-0.0907161
-0.0894986
-0.0881855
-0.0867685
-0.0852388
-0.0835864
-0.0818009
-0.0798715
-0.0777873
-0.0755375
-0.0731114
-0.0704991
-0.0676923
-0.0646853
-0.0614769
-0.0580704
-0.0544764
-0.0507119
-0.0468024
-0.0427796
-0.0386833
-0.0345568
-0.0304502
-0.0264142
-0.0225033
-0.0187652
-0.0152485
-0.0119883
-0.00901928
-0.00635692
-0.00401755
-0.0019961
-0.000295159
0.00110485
0.00220889
0.00304895
0.00363552
0.00401135
0.00418699
0.00421172
0.00409009
0.00387573
0.00356239
0.00320795
0.00279062
0.00237371
0.00191439
0.00148405
0.00101407
0.00059002
0.000112444
-0.082977
-0.0907446
-0.0947201
-0.096142
-0.0965788
-0.0969228
-0.0974306
-0.0980583
-0.0986927
-0.0992608
-0.0997374
-0.10013
-0.100456
-0.100732
-0.100963
-0.101151
-0.101293
-0.101382
-0.101413
-0.10138
-0.101282
-0.101116
-0.100881
-0.100578
-0.100209
-0.0997744
-0.0992759
-0.0987145
-0.0980906
-0.0974041
-0.0966548
-0.095842
-0.0949647
-0.0940214
-0.0930102
-0.091929
-0.090775
-0.0895452
-0.0882357
-0.0868422
-0.0853599
-0.0837836
-0.0821077
-0.0803264
-0.0784338
-0.0764238
-0.0742909
-0.0720295
-0.0696346
-0.0671019
-0.064428
-0.0616111
-0.0586516
-0.0555535
-0.0523245
-0.0489773
-0.0455294
-0.0420044
-0.0384312
-0.0348442
-0.0312811
-0.0277823
-0.0243872
-0.0211352
-0.0180611
-0.0151976
-0.0125685
-0.0101946
-0.00808446
-0.00624535
-0.00466921
-0.00334942
-0.00226431
-0.0014026
-0.000735169
-0.000248708
9.39206e-05
0.000304732
0.000426223
0.000461909
0.000457125
0.000400877
0.00034419
0.000256695
0.000200847
0.000116871
8.55509e-05
1.84484e-06
-1.90612e-05
-0.00014154
-0.0728343
-0.0800055
-0.0853488
-0.0888517
-0.0910149
-0.0924919
-0.0937304
-0.0949104
-0.0960452
-0.0970896
-0.0980054
-0.0987822
-0.0994302
-0.0999667
-0.100406
-0.100755
-0.101014
-0.101182
-0.101255
-0.10123
-0.101106
-0.100884
-0.100566
-0.100153
-0.0996506
-0.0990619
-0.0983906
-0.0976403
-0.096814
-0.0959139
-0.0949419
-0.093899
-0.0927857
-0.0916019
-0.0903466
-0.0890185
-0.0876157
-0.0861359
-0.0845765
-0.0829344
-0.0812065
-0.0793896
-0.0774807
-0.0754767
-0.0733751
-0.0711739
-0.0688715
-0.0664674
-0.0639614
-0.0613547
-0.0586494
-0.0558493
-0.0529597
-0.049988
-0.0469437
-0.0438395
-0.0406917
-0.0375218
-0.0343557
-0.0312243
-0.028161
-0.0252001
-0.0223733
-0.0197078
-0.0172247
-0.0149403
-0.0128654
-0.0110092
-0.00937592
-0.00796717
-0.00677303
-0.00577794
-0.00495589
-0.00428669
-0.00374459
-0.00331421
-0.00296879
-0.00269446
-0.00246078
-0.00226152
-0.00206747
-0.00188777
-0.00169012
-0.00150177
-0.00127661
-0.00107217
-0.000815796
-0.000623166
-0.000364552
-0.000262864
-0.0676856
-0.0743148
-0.0797991
-0.0840357
-0.0871479
-0.0894448
-0.0912663
-0.0928509
-0.0943066
-0.095651
-0.0968642
-0.0979255
-0.0988283
-0.0995786
-0.100187
-0.100662
-0.101008
-0.101226
-0.101315
-0.101273
-0.101102
-0.100803
-0.100382
-0.0998427
-0.0991922
-0.0984368
-0.0975829
-0.0966362
-0.0956022
-0.0944854
-0.0932896
-0.0920177
-0.0906715
-0.0892519
-0.0877588
-0.0861917
-0.0845492
-0.08283
-0.0810322
-0.0791541
-0.0771944
-0.0751517
-0.0730252
-0.0708148
-0.0685211
-0.0661454
-0.0636903
-0.0611594
-0.0585576
-0.055891
-0.0531669
-0.0503938
-0.0475807
-0.0447372
-0.0418738
-0.0390023
-0.0361371
-0.033296
-0.0305015
-0.0277809
-0.0251652
-0.0226864
-0.0203714
-0.0182378
-0.0162909
-0.0145264
-0.0129366
-0.0115183
-0.0102728
-0.00920149
-0.00829568
-0.007535
-0.00688821
-0.00632661
-0.00582751
-0.00538054
-0.00497439
-0.00460121
-0.00424433
-0.00389633
-0.00354154
-0.00318227
-0.0028051
-0.00242547
-0.00202432
-0.0016374
-0.00122482
-0.000872695
-0.000480422
-0.000271627
-0.0632413
-0.0695311
-0.0750151
-0.0795991
-0.0832919
-0.0862266
-0.0886123
-0.0906478
-0.0924653
-0.094123
-0.0956287
-0.096969
-0.0981306
-0.0991087
-0.099906
-0.100528
-0.100979
-0.101262
-0.101379
-0.101329
-0.101117
-0.100746
-0.100225
-0.0995624
-0.0987668
-0.097848
-0.0968149
-0.0956756
-0.0944379
-0.0931085
-0.0916938
-0.0901984
-0.0886259
-0.0869782
-0.0852561
-0.0834597
-0.0815883
-0.0796413
-0.0776178
-0.0755173
-0.07334
-0.0710865
-0.0687585
-0.0663585
-0.0638901
-0.061358
-0.0587685
-0.0561294
-0.05345
-0.0507417
-0.0480172
-0.0452895
-0.0425711
-0.0398736
-0.0372074
-0.0345828
-0.0320107
-0.0295032
-0.027075
-0.0247461
-0.0225436
-0.0204977
-0.0186336
-0.0169627
-0.0154751
-0.0141428
-0.0129366
-0.011841
-0.0108573
-0.0099909
-0.00923981
-0.00858965
-0.00801024
-0.00746778
-0.00694
-0.00642189
-0.0059154
-0.00542698
-0.00495771
-0.00450723
-0.00406752
-0.00363489
-0.00319836
-0.00275919
-0.00230774
-0.00185763
-0.00139696
-0.000970768
-0.000538572
-0.000261688
-0.0597228
-0.0658192
-0.0712955
-0.0760749
-0.0801348
-0.0835292
-0.0863793
-0.0888297
-0.0910005
-0.0929629
-0.0947429
-0.0963381
-0.0977361
-0.098926
-0.0999029
-0.100667
-0.101219
-0.101563
-0.1017
-0.101633
-0.101367
-0.100912
-0.100277
-0.0994768
-0.0985243
-0.0974327
-0.0962132
-0.0948762
-0.0934315
-0.0918884
-0.0902548
-0.0885376
-0.0867418
-0.0848708
-0.0829266
-0.08091
-0.0788212
-0.0766603
-0.0744274
-0.0721233
-0.0697496
-0.067309
-0.0648057
-0.0622452
-0.0596344
-0.0569815
-0.0542959
-0.0515888
-0.0488731
-0.0461651
-0.0434827
-0.0408435
-0.0382622
-0.0357503
-0.0333161
-0.0309661
-0.0287057
-0.0265399
-0.0244724
-0.0225092
-0.020669
-0.0189773
-0.017456
-0.0161167
-0.0149442
-0.0138975
-0.012935
-0.012032
-0.0111863
-0.0104008
-0.00967295
-0.00901058
-0.00840796
-0.00784398
-0.0073014
-0.00677843
-0.00626465
-0.00575596
-0.00525301
-0.00475717
-0.00426736
-0.00378368
-0.00330427
-0.00283008
-0.00235708
-0.00188863
-0.00142147
-0.000976905
-0.000547606
-0.000253777
-0.0569043
-0.0629078
-0.0683882
-0.0732798
-0.0775624
-0.0812686
-0.084475
-0.0872804
-0.0897772
-0.0920314
-0.094075
-0.0959132
-0.097536
-0.0989296
-0.100083
-0.100988
-0.101644
-0.102049
-0.102207
-0.10212
-0.101797
-0.10125
-0.100493
-0.0995464
-0.0984305
-0.0971621
-0.0957554
-0.094223
-0.0925768
-0.090828
-0.0889868
-0.0870618
-0.0850597
-0.0829856
-0.0808427
-0.0786329
-0.0763574
-0.0740174
-0.0716141
-0.0691495
-0.0666268
-0.0640507
-0.0614277
-0.0587663
-0.0560771
-0.0533719
-0.050663
-0.0479623
-0.0452844
-0.0426482
-0.0400747
-0.0375818
-0.0351826
-0.0328848
-0.0306917
-0.0286033
-0.0266188
-0.0247383
-0.0229627
-0.0212941
-0.0197376
-0.0183052
-0.0170078
-0.0158405
-0.0147883
-0.0138341
-0.0129587
-0.012143
-0.0113804
-0.010675
-0.0100118
-0.00936549
-0.00872054
-0.00807707
-0.00744896
-0.00684369
-0.00626959
-0.00572838
-0.00521785
-0.00472977
-0.00425501
-0.00378692
-0.00332102
-0.00285558
-0.00238903
-0.00192315
-0.00146029
-0.00101228
-0.000594929
-0.000250095
-0.0545923
-0.0605826
-0.0660784
-0.0710359
-0.0754554
-0.079374
-0.0828519
-0.0859566
-0.0887516
-0.0912865
-0.0935898
-0.0956681
-0.0975129
-0.0991081
-0.100437
-0.101486
-0.102247
-0.102717
-0.102896
-0.10279
-0.102409
-0.101768
-0.100887
-0.0997938
-0.0985151
-0.0970732
-0.0954874
-0.0937749
-0.0919508
-0.0900288
-0.0880204
-0.0859351
-0.0837802
-0.0815611
-0.0792815
-0.076944
-0.0745504
-0.0721025
-0.0696025
-0.0670534
-0.0644593
-0.0618261
-0.0591616
-0.0564761
-0.053782
-0.0510942
-0.048427
-0.0457921
-0.0432077
-0.0406948
-0.0382711
-0.0359477
-0.0337295
-0.0316162
-0.0296047
-0.0276893
-0.025865
-0.0241347
-0.0225105
-0.0210096
-0.0196431
-0.0184121
-0.0173063
-0.0162849
-0.0152915
-0.0143003
-0.013315
-0.0123613
-0.0114792
-0.010675
-0.00994787
-0.0092878
-0.00866281
-0.0080581
-0.00746669
-0.00688983
-0.00633129
-0.00579616
-0.00528158
-0.00478283
-0.00429554
-0.00381645
-0.00334332
-0.00287505
-0.00241054
-0.00195015
-0.00149566
-0.00105632
-0.000646974
-0.00025446
-0.0531248
-0.0590898
-0.0645612
-0.069531
-0.0740236
-0.0780807
-0.0817506
-0.0850809
-0.088114
-0.0908838
-0.0934103
-0.0956977
-0.0977362
-0.0995073
-0.10099
-0.102165
-0.103017
-0.103539
-0.103729
-0.103595
-0.103152
-0.102422
-0.101431
-0.100207
-0.0987762
-0.0971707
-0.0954194
-0.093548
-0.0915774
-0.0895243
-0.0874014
-0.0852179
-0.0829802
-0.0806927
-0.0783578
-0.0759772
-0.0735519
-0.071083
-0.0685722
-0.0660219
-0.0634359
-0.0608196
-0.0581804
-0.055528
-0.0528745
-0.0502352
-0.0476281
-0.0450762
-0.0426015
-0.0402223
-0.037952
-0.035797
-0.0337546
-0.0318125
-0.0299522
-0.0281559
-0.0264043
-0.024688
-0.0230169
-0.0214162
-0.0199172
-0.0185496
-0.0173157
-0.0161977
-0.0151686
-0.0142014
-0.0132808
-0.0124021
-0.0115699
-0.010796
-0.0100784
-0.00940328
-0.00875632
-0.00812942
-0.00752138
-0.00693452
-0.00637089
-0.00582983
-0.00530929
-0.00480557
-0.00431449
-0.00383258
-0.00335765
-0.00288898
-0.00242681
-0.00197192
-0.00152587
-0.00109401
-0.000682634
-0.000261592
-0.0522465
-0.0582345
-0.0637123
-0.0687066
-0.0732576
-0.077408
-0.0812014
-0.0846809
-0.0878822
-0.0908267
-0.0935219
-0.0959636
-0.0981378
-0.100025
-0.101603
-0.102853
-0.103759
-0.104315
-0.104519
-0.104382
-0.10392
-0.10316
-0.10213
-0.100863
-0.099392
-0.0977486
-0.0959618
-0.0940575
-0.0920573
-0.0899787
-0.0878349
-0.0856356
-0.0833874
-0.0810945
-0.0787593
-0.0763833
-0.0739673
-0.071512
-0.0690186
-0.0664889
-0.063926
-0.0613344
-0.0587205
-0.0560925
-0.0534612
-0.0508396
-0.0482431
-0.0456889
-0.0431944
-0.040776
-0.0384475
-0.0362177
-0.0340892
-0.0320591
-0.030123
-0.0282613
-0.0264626
-0.0247277
-0.0230675
-0.021501
-0.0200467
-0.0187162
-0.0175086
-0.0164006
-0.0153594
-0.0143628
-0.0134049
-0.0124928
-0.0116386
-0.0108475
-0.0101156
-0.00943095
-0.00877871
-0.00815038
-0.00754322
-0.00695776
-0.0063951
-0.00585457
-0.00533336
-0.00482765
-0.00433376
-0.00384888
-0.00337144
-0.00290122
-0.00243921
-0.00198721
-0.00154695
-0.00111981
-0.000703905
-0.000270566
)
;

boundaryField
{
    fixedWalls
    {
        type            zeroGradient;
    }
    inflowWall
    {
        type            zeroGradient;
    }
    outflowWall
    {
        type            fixedValue;
        value           uniform 0;
    }
    frontAndBack
    {
        type            empty;
    }
}


// ************************************************************************* //
