/*--------------------------------*- C++ -*----------------------------------*\
| =========                 |                                                 |
| \\      /  F ield         | OpenFOAM: The Open Source CFD Toolbox           |
|  \\    /   O peration     | Version:  2306                                  |
|   \\  /    A nd           | Website:  www.openfoam.com                      |
|    \\/     M anipulation  |                                                 |
\*---------------------------------------------------------------------------*/
FoamFile
{
    version     2.0;
    format      ascii;
    arch        "LSB;label=32;scalar=64";
    class       volVectorField;
    location    "8";
    object      U;
}
// * * * * * * * * * * * * * * * * * * * * * * * * * * * * * * * * * * * * * //

dimensions      [0 1 -1 0 0 0 0];

internalField   nonuniform List<vector> 
1900
(
(0.984273 0.00729101 0)
(0.961758 0.0216823 0)
(0.95232 0.0181804 0)
(0.918694 0.0253027 0)
(0.903395 0.0154498 0)
(0.863044 0.0257489 0)
(0.852212 0.0116143 0)
(0.811897 0.0267305 0)
(0.80954 0.00459202 0)
(0.770323 0.0259953 0)
(1.00256 0.0115602 0)
(1.00446 0.0258639 0)
(1.01943 0.0289706 0)
(1.02197 0.0304649 0)
(1.03486 0.0280186 0)
(1.03394 0.0284374 0)
(1.04402 0.0258113 0)
(1.04274 0.0251318 0)
(1.05111 0.0207226 0)
(1.05217 0.0162842 0)
(1.00048 0.00388877 0)
(1.00419 0.0111595 0)
(1.01255 0.0140082 0)
(1.02112 0.0158002 0)
(1.03153 0.0147327 0)
(1.04052 0.0144468 0)
(1.04996 0.0124154 0)
(1.05836 0.0109833 0)
(1.06683 0.0073842 0)
(1.07465 0.00324921 0)
(1.00007 0.00207916 0)
(1.00313 0.0058488 0)
(1.00888 0.00806552 0)
(1.01648 0.00905091 0)
(1.02527 0.00857857 0)
(1.0343 0.0074873 0)
(1.04323 0.00571804 0)
(1.05178 0.0035683 0)
(1.05995 0.000758123 0)
(1.06762 -0.00273714 0)
(1.00003 0.000426674 0)
(1.00261 0.0011791 0)
(1.00738 0.00144661 0)
(1.01402 0.00117202 0)
(1.02191 0.000280399 0)
(1.03035 -0.00107421 0)
(1.03879 -0.00285741 0)
(1.04691 -0.00504429 0)
(1.05459 -0.00768273 0)
(1.06174 -0.0108309 0)
(1.00003 -0.00105836 0)
(1.00255 -0.00301978 0)
(1.0072 -0.00473641 0)
(1.01366 -0.00616827 0)
(1.02133 -0.00746084 0)
(1.02949 -0.00881401 0)
(1.03759 -0.0104134 0)
(1.04533 -0.0123686 0)
(1.05261 -0.0147198 0)
(1.05939 -0.0174375 0)
(1.00003 -0.00270828 0)
(1.00303 -0.00742499 0)
(1.00836 -0.0110458 0)
(1.01546 -0.0134759 0)
(1.02347 -0.0150923 0)
(1.03164 -0.0164438 0)
(1.03952 -0.017935 0)
(1.04692 -0.0197435 0)
(1.05385 -0.0218618 0)
(1.06035 -0.0242001 0)
(1.00004 -0.004767 0)
(1.00441 -0.0122261 0)
(1.01138 -0.0169044 0)
(1.0198 -0.0193287 0)
(1.02841 -0.0206471 0)
(1.03642 -0.0218079 0)
(1.04363 -0.0232592 0)
(1.05011 -0.0250276 0)
(1.056 -0.0269716 0)
(1.06133 -0.028957 0)
(1.00006 -0.0121171 0)
(1.00722 -0.0259466 0)
(1.01559 -0.03142 0)
(1.02288 -0.0325635 0)
(1.02795 -0.032641 0)
(1.03076 -0.0330082 0)
(1.03178 -0.0337774 0)
(1.03149 -0.0346848 0)
(1.03011 -0.0355149 0)
(1.02764 -0.0362076 0)
(0.980777 -0.00916302 0)
(0.964588 -0.0188199 0)
(0.945465 -0.022043 0)
(0.920805 -0.0221804 0)
(0.892027 -0.0217318 0)
(0.86173 -0.0215674 0)
(0.831512 -0.0215953 0)
(0.801853 -0.0215799 0)
(0.772688 -0.0213971 0)
(0.743771 -0.0210621 0)
(0.000207215 -0.000110146 0)
(0.000341851 -2.06314e-05 0)
(7.3491e-05 2.88419e-05 0)
(-0.0004168 5.81407e-05 0)
(-0.00107077 7.62022e-05 0)
(-0.00184577 9.38365e-05 0)
(-0.00272865 0.000114499 0)
(-0.00371464 0.000137126 0)
(-0.0047986 0.000160496 0)
(-0.00597427 0.000183901 0)
(-0.00723458 0.000206908 0)
(-0.00857201 0.000229216 0)
(-0.0099789 0.000250581 0)
(-0.0114477 0.000270804 0)
(-0.0129709 0.000289737 0)
(-0.0145415 0.000307294 0)
(-0.016153 0.000323435 0)
(-0.0177991 0.000338142 0)
(-0.0194741 0.00035139 0)
(-0.0211728 0.000363184 0)
(-0.0228907 0.00037356 0)
(-0.0246244 0.000382584 0)
(-0.026371 0.00039035 0)
(-0.0281289 0.000396973 0)
(-0.0298975 0.000402579 0)
(-0.0316772 0.000407322 0)
(-0.0334699 0.000411409 0)
(-0.0352787 0.000415089 0)
(-0.037108 0.000418627 0)
(-0.038964 0.000422299 0)
(-0.0408539 0.000426355 0)
(-0.0427868 0.000430974 0)
(-0.0447725 0.000436231 0)
(-0.0468222 0.000442196 0)
(-0.0489487 0.00044914 0)
(-0.0511665 0.000457718 0)
(-0.0534927 0.000469053 0)
(-0.0559475 0.000484978 0)
(-0.0585548 0.000508486 0)
(-0.0613433 0.000544173 0)
(-0.064348 0.000598955 0)
(-0.0676117 0.000682849 0)
(-0.071187 0.000809161 0)
(-0.0751361 0.000993246 0)
(-0.0795282 0.00125 0)
(-0.084432 0.00159081 0)
(-0.0899063 0.00201956 0)
(-0.0959878 0.00252956 0)
(-0.102679 0.00310104 0)
(-0.109937 0.00369841 0)
(-0.117656 0.0042692 0)
(-0.12566 0.00475409 0)
(-0.133715 0.00509734 0)
(-0.141538 0.00525789 0)
(-0.148813 0.00521004 0)
(-0.155208 0.00495593 0)
(-0.160425 0.00453497 0)
(-0.164216 0.00399922 0)
(-0.16634 0.00332831 0)
(-0.166602 0.00251047 0)
(-0.164915 0.00155716 0)
(-0.161248 0.00054105 0)
(-0.155554 -0.000513312 0)
(-0.147906 -0.00155389 0)
(-0.138372 -0.00255695 0)
(-0.127115 -0.00349608 0)
(-0.114267 -0.00433952 0)
(-0.100017 -0.00508447 0)
(-0.084619 -0.00569169 0)
(-0.0681171 -0.00623799 0)
(-0.0510536 -0.00655203 0)
(-0.0331596 -0.00683682 0)
(-0.0153867 -0.00693774 0)
(0.00313588 -0.00700575 0)
(0.0208472 -0.0069075 0)
(0.039332 -0.00683736 0)
(0.0562688 -0.00657134 0)
(0.0742113 -0.0063993 0)
(0.0898975 -0.00602582 0)
(0.107003 -0.0058144 0)
(0.121101 -0.00539012 0)
(0.137318 -0.00519958 0)
(0.149636 -0.00478097 0)
(0.165198 -0.00466517 0)
(0.175603 -0.00430758 0)
(0.191156 -0.00431448 0)
(0.199359 -0.00406569 0)
(0.216283 -0.00428352 0)
(0.221366 -0.00415911 0)
(0.242425 -0.00500503 0)
(5.88852e-05 -0.000513817 0)
(-0.000537669 0.000153179 0)
(-0.00204869 0.000727611 0)
(-0.00397904 0.00113202 0)
(-0.00629436 0.00141117 0)
(-0.00892169 0.0016336 0)
(-0.0118236 0.00183528 0)
(-0.0149715 0.00202404 0)
(-0.0183362 0.00219975 0)
(-0.0218893 0.00236138 0)
(-0.0256041 0.00250809 0)
(-0.0294544 0.00263958 0)
(-0.0334157 0.00275606 0)
(-0.0374653 0.002858 0)
(-0.0415825 0.00294612 0)
(-0.0457487 0.00302129 0)
(-0.0499478 0.00308448 0)
(-0.0541661 0.00313663 0)
(-0.058392 0.0031787 0)
(-0.0626164 0.00321203 0)
(-0.0668327 0.00323824 0)
(-0.0710369 0.00325912 0)
(-0.0752278 0.00327661 0)
(-0.0794067 0.00329277 0)
(-0.0835774 0.00330975 0)
(-0.0877463 0.00332984 0)
(-0.0919224 0.00335561 0)
(-0.0961171 0.00338978 0)
(-0.100344 0.00343512 0)
(-0.10462 0.00349446 0)
(-0.108963 0.00357055 0)
(-0.113392 0.00366599 0)
(-0.117929 0.00378324 0)
(-0.122594 0.00392497 0)
(-0.127408 0.0040945 0)
(-0.132394 0.00429601 0)
(-0.137571 0.00453409 0)
(-0.142959 0.00481385 0)
(-0.148572 0.00514131 0)
(-0.15442 0.00552312 0)
(-0.160506 0.00596654 0)
(-0.166821 0.00647926 0)
(-0.173349 0.00706786 0)
(-0.180056 0.00773375 0)
(-0.186889 0.00846799 0)
(-0.193771 0.00924787 0)
(-0.200596 0.0100337 0)
(-0.207228 0.0107705 0)
(-0.213502 0.0113925 0)
(-0.219235 0.0118261 0)
(-0.224216 0.0119853 0)
(-0.228218 0.0117961 0)
(-0.231006 0.0112051 0)
(-0.232359 0.0101951 0)
(-0.232051 0.00874687 0)
(-0.229875 0.0068531 0)
(-0.225683 0.00453839 0)
(-0.219475 0.00189621 0)
(-0.211113 -0.000989182 0)
(-0.200652 -0.00403228 0)
(-0.187974 -0.00717923 0)
(-0.173256 -0.0103065 0)
(-0.156412 -0.0133934 0)
(-0.137756 -0.0163141 0)
(-0.117244 -0.0190013 0)
(-0.0952263 -0.0214423 0)
(-0.071802 -0.0235953 0)
(-0.0471114 -0.025478 0)
(-0.0217922 -0.0270112 0)
(0.00488185 -0.0282732 0)
(0.0311905 -0.0291036 0)
(0.0591638 -0.0297547 0)
(0.0853119 -0.0299397 0)
(0.113895 -0.0300521 0)
(0.139088 -0.029661 0)
(0.167749 -0.0293678 0)
(0.191301 -0.0285293 0)
(0.219673 -0.0279494 0)
(0.241002 -0.0268053 0)
(0.268999 -0.026094 0)
(0.287623 -0.0247914 0)
(0.315442 -0.0241055 0)
(0.330958 -0.0227847 0)
(0.359107 -0.02228 0)
(0.37116 -0.0210704 0)
(0.400469 -0.0209114 0)
(0.408734 -0.019933 0)
(0.440331 -0.0203374 0)
(0.444515 -0.019733 0)
(0.479588 -0.0211145 0)
(-0.000164117 0.000436813 0)
(-0.00196606 0.00231759 0)
(-0.00546848 0.0035432 0)
(-0.00944583 0.00436345 0)
(-0.0138626 0.00500346 0)
(-0.0186169 0.00557006 0)
(-0.0236664 0.00608893 0)
(-0.0289708 0.00655977 0)
(-0.0344761 0.00697781 0)
(-0.0401296 0.00734128 0)
(-0.0458835 0.00765006 0)
(-0.0516949 0.00790613 0)
(-0.0575262 0.00811293 0)
(-0.0633458 0.0082746 0)
(-0.0691273 0.00839568 0)
(-0.0748495 0.008481 0)
(-0.0804957 0.00853548 0)
(-0.0860535 0.00856411 0)
(-0.0915135 0.00857201 0)
(-0.0968698 0.00856422 0)
(-0.10212 0.00854578 0)
(-0.107263 0.0085218 0)
(-0.112303 0.00849743 0)
(-0.117243 0.00847772 0)
(-0.12209 0.00846762 0)
(-0.126851 0.00847203 0)
(-0.131533 0.00849593 0)
(-0.136147 0.00854431 0)
(-0.140699 0.00862167 0)
(-0.145198 0.00873202 0)
(-0.149651 0.00887869 0)
(-0.154063 0.00906405 0)
(-0.158434 0.00928931 0)
(-0.162763 0.00955472 0)
(-0.167044 0.00985998 0)
(-0.171265 0.0102045 0)
(-0.17541 0.0105861 0)
(-0.179457 0.0110004 0)
(-0.183373 0.0114413 0)
(-0.187117 0.0119009 0)
(-0.190638 0.0123695 0)
(-0.193871 0.0128362 0)
(-0.196742 0.0132891 0)
(-0.199164 0.0137123 0)
(-0.20104 0.0140762 0)
(-0.202258 0.014341 0)
(-0.202693 0.0144531 0)
(-0.202207 0.01435 0)
(-0.200656 0.0139627 0)
(-0.197923 0.0132339 0)
(-0.193864 0.0120711 0)
(-0.188364 0.0104074 0)
(-0.181283 0.0081813 0)
(-0.1726 0.00538998 0)
(-0.162245 0.00203944 0)
(-0.150215 -0.00179871 0)
(-0.136408 -0.00614012 0)
(-0.120976 -0.0108563 0)
(-0.103604 -0.0158714 0)
(-0.0847897 -0.020974 0)
(-0.0641478 -0.0261156 0)
(-0.0423566 -0.0311001 0)
(-0.0188785 -0.0359527 0)
(0.00553303 -0.0404321 0)
(0.0313704 -0.0445762 0)
(0.0580168 -0.048221 0)
(0.0852882 -0.0514202 0)
(0.113583 -0.0540746 0)
(0.141407 -0.0562439 0)
(0.170881 -0.0578669 0)
(0.198387 -0.0589089 0)
(0.228529 -0.0595948 0)
(0.254962 -0.0596182 0)
(0.28526 -0.0594656 0)
(0.309943 -0.0586182 0)
(0.340044 -0.0578057 0)
(0.362434 -0.0562912 0)
(0.392162 -0.0550404 0)
(0.411829 -0.0530842 0)
(0.441214 -0.0516403 0)
(0.457847 -0.0494731 0)
(0.487126 -0.0480832 0)
(0.500514 -0.0459223 0)
(0.530123 -0.0448268 0)
(0.540143 -0.0428737 0)
(0.570697 -0.0423166 0)
(0.577299 -0.0407753 0)
(0.609554 -0.0410353 0)
(0.612726 -0.0401501 0)
(0.64748 -0.0415541 0)
(-0.000924183 0.00124268 0)
(-0.0048105 0.00514671 0)
(-0.0107427 0.00763166 0)
(-0.0168224 0.00929675 0)
(-0.0232267 0.010534 0)
(-0.0299041 0.0115162 0)
(-0.0367686 0.0123161 0)
(-0.0437226 0.0129706 0)
(-0.0506755 0.0134935 0)
(-0.057555 0.0138968 0)
(-0.0643059 0.0141928 0)
(-0.0708843 0.0143931 0)
(-0.077258 0.0145095 0)
(-0.0834045 0.0145533 0)
(-0.0893089 0.0145356 0)
(-0.0949618 0.0144669 0)
(-0.100359 0.014357 0)
(-0.1055 0.0142149 0)
(-0.110386 0.014049 0)
(-0.115021 0.0138671 0)
(-0.119411 0.0136766 0)
(-0.123559 0.0134844 0)
(-0.127474 0.0132967 0)
(-0.13116 0.0131193 0)
(-0.134622 0.0129573 0)
(-0.137864 0.0128147 0)
(-0.140887 0.0126957 0)
(-0.143692 0.0126038 0)
(-0.146276 0.0125415 0)
(-0.148634 0.0125099 0)
(-0.150758 0.0125089 0)
(-0.152637 0.0125366 0)
(-0.154255 0.0125893 0)
(-0.155591 0.0126613 0)
(-0.156618 0.012746 0)
(-0.157306 0.0128373 0)
(-0.157621 0.0129284 0)
(-0.157521 0.0130069 0)
(-0.15696 0.0130592 0)
(-0.155883 0.0130701 0)
(-0.154226 0.0130221 0)
(-0.151915 0.0128974 0)
(-0.14887 0.0126792 0)
(-0.145017 0.0123543 0)
(-0.140264 0.0118806 0)
(-0.134528 0.0112111 0)
(-0.127707 0.0102899 0)
(-0.119716 0.00905983 0)
(-0.110427 0.00741133 0)
(-0.0998763 0.00531307 0)
(-0.0879231 0.00269829 0)
(-0.0746281 -0.000445082 0)
(-0.0598392 -0.00419271 0)
(-0.0437665 -0.00852481 0)
(-0.0261284 -0.0134822 0)
(-0.00728995 -0.0189087 0)
(0.0131769 -0.0247735 0)
(0.0344907 -0.0308199 0)
(0.0575343 -0.037102 0)
(0.0811138 -0.0433612 0)
(0.106401 -0.0496622 0)
(0.131936 -0.0556706 0)
(0.158989 -0.061529 0)
(0.186148 -0.0668098 0)
(0.21433 -0.0717264 0)
(0.242718 -0.0759526 0)
(0.271364 -0.0796678 0)
(0.300501 -0.0826213 0)
(0.328859 -0.0849446 0)
(0.358265 -0.0865451 0)
(0.385619 -0.0874522 0)
(0.414851 -0.0877779 0)
(0.44056 -0.0873945 0)
(0.469269 -0.0866261 0)
(0.49279 -0.0851621 0)
(0.520759 -0.0835579 0)
(0.541687 -0.0812876 0)
(0.568859 -0.0791541 0)
(0.586913 -0.0763782 0)
(0.613394 -0.0740384 0)
(0.628415 -0.0710582 0)
(0.65447 -0.0688287 0)
(0.666393 -0.0659268 0)
(0.692431 -0.0641067 0)
(0.701265 -0.0615431 0)
(0.727812 -0.0604205 0)
(0.733605 -0.0584473 0)
(0.761282 -0.0583183 0)
(0.764086 -0.057199 0)
(0.793568 -0.0583718 0)
(-0.00128147 0.00695199 0)
(-0.00687785 0.0138245 0)
(-0.015509 0.0164611 0)
(-0.0240084 0.0176225 0)
(-0.0325148 0.0184556 0)
(-0.0407816 0.0192353 0)
(-0.0486804 0.0199125 0)
(-0.0561702 0.0204102 0)
(-0.0632212 0.0207093 0)
(-0.0698016 0.0208357 0)
(-0.075894 0.0208179 0)
(-0.0814933 0.0206811 0)
(-0.086604 0.0204473 0)
(-0.0912372 0.0201361 0)
(-0.0954081 0.0197643 0)
(-0.0991349 0.0193466 0)
(-0.102437 0.0188955 0)
(-0.105334 0.0184213 0)
(-0.107844 0.017932 0)
(-0.109983 0.0174357 0)
(-0.111767 0.0169396 0)
(-0.113209 0.0164498 0)
(-0.114319 0.0159711 0)
(-0.115107 0.0155078 0)
(-0.115578 0.0150623 0)
(-0.115732 0.0146362 0)
(-0.115568 0.01423 0)
(-0.115082 0.0138451 0)
(-0.114264 0.0134806 0)
(-0.113102 0.0131336 0)
(-0.111581 0.0128002 0)
(-0.109682 0.0124743 0)
(-0.10738 0.0121482 0)
(-0.104649 0.0118118 0)
(-0.101451 0.0114545 0)
(-0.097749 0.0110686 0)
(-0.0935132 0.0106507 0)
(-0.088693 0.0101779 0)
(-0.0832447 0.00963066 0)
(-0.0771176 0.00898979 0)
(-0.07025 0.00823247 0)
(-0.0625762 0.00733445 0)
(-0.0540013 0.0062567 0)
(-0.0445267 0.00496763 0)
(-0.0340441 0.0034395 0)
(-0.0225157 0.00164656 0)
(-0.00981625 -0.000468118 0)
(0.00398718 -0.0029434 0)
(0.0190714 -0.00586281 0)
(0.0352463 -0.00925961 0)
(0.0528629 -0.0132275 0)
(0.071525 -0.0177313 0)
(0.0917249 -0.02284 0)
(0.112711 -0.0284401 0)
(0.135323 -0.0345772 0)
(0.158385 -0.0410788 0)
(0.183171 -0.0480162 0)
(0.208026 -0.0550723 0)
(0.234619 -0.0623543 0)
(0.260944 -0.0694807 0)
(0.288931 -0.0766009 0)
(0.316347 -0.0832732 0)
(0.345213 -0.0897018 0)
(0.373278 -0.0954184 0)
(0.402423 -0.100679 0)
(0.430649 -0.105053 0)
(0.459431 -0.108823 0)
(0.487328 -0.111625 0)
(0.51509 -0.113739 0)
(0.542215 -0.114908 0)
(0.568366 -0.115376 0)
(0.594381 -0.115016 0)
(0.618435 -0.113998 0)
(0.643142 -0.112345 0)
(0.664736 -0.11011 0)
(0.688078 -0.107488 0)
(0.706984 -0.104377 0)
(0.729048 -0.101163 0)
(0.745152 -0.097544 0)
(0.766152 -0.0941273 0)
(0.779433 -0.0903619 0)
(0.799695 -0.0871143 0)
(0.810195 -0.0835374 0)
(0.830134 -0.0808021 0)
(0.837927 -0.077715 0)
(0.858024 -0.0758085 0)
(0.863178 -0.0734862 0)
(0.883963 -0.0727103 0)
(0.886504 -0.0714156 0)
(0.908535 -0.0720745 0)
(-0.00367128 0.00683956 0)
(-0.0134804 0.0172951 0)
(-0.0245224 0.0220239 0)
(-0.0336319 0.024685 0)
(-0.0418866 0.0262728 0)
(-0.0494831 0.0271117 0)
(-0.0563826 0.0273804 0)
(-0.0624618 0.0272645 0)
(-0.0676305 0.0269002 0)
(-0.0718934 0.0263599 0)
(-0.0753087 0.0256897 0)
(-0.0779387 0.0249234 0)
(-0.0798462 0.0240892 0)
(-0.0810914 0.0232097 0)
(-0.08173 0.0223026 0)
(-0.0818131 0.0213822 0)
(-0.0813874 0.0204597 0)
(-0.0804946 0.0195433 0)
(-0.079168 0.0186361 0)
(-0.0774383 0.0177433 0)
(-0.0753305 0.0168692 0)
(-0.0728648 0.0160159 0)
(-0.0700561 0.0151839 0)
(-0.0669156 0.0143737 0)
(-0.0634493 0.0135833 0)
(-0.0596574 0.0128097 0)
(-0.0555318 0.0120487 0)
(-0.0510689 0.0113017 0)
(-0.0462545 0.0105648 0)
(-0.0410702 0.00983061 0)
(-0.0354954 0.00909164 0)
(-0.0295054 0.00833922 0)
(-0.0230722 0.00756312 0)
(-0.0161624 0.00675022 0)
(-0.0087308 0.00588327 0)
(-0.000720987 0.00493699 0)
(0.00785291 0.0038895 0)
(0.0170634 0.00273771 0)
(0.0269609 0.00146605 0)
(0.0375796 5.14166e-05 0)
(0.0489938 -0.0015366 0)
(0.0612115 -0.00331792 0)
(0.0743518 -0.00532493 0)
(0.0883479 -0.00759009 0)
(0.103395 -0.0101651 0)
(0.119396 -0.0130699 0)
(0.136605 -0.0163508 0)
(0.154731 -0.0200434 0)
(0.174218 -0.02421 0)
(0.194499 -0.0288175 0)
(0.216276 -0.0339585 0)
(0.23864 -0.0395737 0)
(0.262603 -0.04576 0)
(0.286832 -0.0523604 0)
(0.312706 -0.0594712 0)
(0.338462 -0.0668336 0)
(0.36586 -0.0745572 0)
(0.392724 -0.0822816 0)
(0.421164 -0.0901437 0)
(0.448642 -0.0977152 0)
(0.477577 -0.105173 0)
(0.505127 -0.11204 0)
(0.533953 -0.118546 0)
(0.561006 -0.124194 0)
(0.589093 -0.129274 0)
(0.615096 -0.133303 0)
(0.641844 -0.136636 0)
(0.666326 -0.138825 0)
(0.691223 -0.140277 0)
(0.713849 -0.140601 0)
(0.736521 -0.140233 0)
(0.757128 -0.138847 0)
(0.777351 -0.13688 0)
(0.795938 -0.134083 0)
(0.813618 -0.130858 0)
(0.830325 -0.127043 0)
(0.845476 -0.122969 0)
(0.860551 -0.118574 0)
(0.873259 -0.114078 0)
(0.887028 -0.109539 0)
(0.89742 -0.105028 0)
(0.910259 -0.10075 0)
(0.918469 -0.0965863 0)
(0.930784 -0.092928 0)
(0.936925 -0.089428 0)
(0.949132 -0.0867068 0)
(0.953269 -0.0841422 0)
(0.965786 -0.0826422 0)
(0.967895 -0.0812527 0)
(0.981135 -0.0812382 0)
(-0.00179946 0.0288054 0)
(-0.00957187 0.0405617 0)
(-0.0240414 0.0405001 0)
(-0.0354203 0.0380664 0)
(-0.0444329 0.0361985 0)
(-0.0508375 0.0346921 0)
(-0.0549378 0.0331995 0)
(-0.0571352 0.0316464 0)
(-0.0577924 0.0300421 0)
(-0.0571901 0.0284124 0)
(-0.0555179 0.0267781 0)
(-0.0529273 0.0251544 0)
(-0.0495458 0.0235591 0)
(-0.0454822 0.0220035 0)
(-0.0408279 0.020494 0)
(-0.0356614 0.0190348 0)
(-0.0300483 0.0176276 0)
(-0.0240511 0.016272 0)
(-0.0176992 0.0149542 0)
(-0.0110378 0.0136789 0)
(-0.00409438 0.012447 0)
(0.00311049 0.0112554 0)
(0.0105627 0.0100998 0)
(0.0182538 0.00897677 0)
(0.026182 0.00788173 0)
(0.0343493 0.00680758 0)
(0.0427891 0.00573841 0)
(0.0514931 0.00465602 0)
(0.0604811 0.00355345 0)
(0.0697844 0.00242754 0)
(0.0794296 0.00127094 0)
(0.0894495 7.06231e-05 0)
(0.0998781 -0.00118786 0)
(0.110754 -0.00252099 0)
(0.122109 -0.00394546 0)
(0.133995 -0.00547784 0)
(0.146427 -0.00714551 0)
(0.159465 -0.00896995 0)
(0.17319 -0.0109702 0)
(0.187583 -0.0131663 0)
(0.202766 -0.0155872 0)
(0.218668 -0.0182551 0)
(0.235479 -0.021204 0)
(0.253038 -0.0244427 0)
(0.271635 -0.0280123 0)
(0.290969 -0.0319316 0)
(0.311472 -0.0362555 0)
(0.332628 -0.040981 0)
(0.355056 -0.046174 0)
(0.377973 -0.0517928 0)
(0.402218 -0.0579136 0)
(0.4267 -0.0644441 0)
(0.452514 -0.071462 0)
(0.478217 -0.078796 0)
(0.505195 -0.0865191 0)
(0.531631 -0.0943732 0)
(0.559233 -0.102437 0)
(0.585801 -0.110375 0)
(0.613399 -0.118289 0)
(0.63944 -0.125778 0)
(0.666368 -0.13299 0)
(0.691223 -0.139478 0)
(0.716836 -0.145455 0)
(0.739903 -0.150451 0)
(0.763635 -0.154758 0)
(0.784438 -0.1579 0)
(0.805862 -0.160262 0)
(0.824101 -0.161378 0)
(0.842974 -0.161721 0)
(0.858558 -0.160845 0)
(0.874836 -0.1593 0)
(0.887874 -0.15666 0)
(0.901673 -0.153526 0)
(0.912417 -0.14949 0)
(0.923952 -0.145178 0)
(0.932744 -0.140196 0)
(0.942278 -0.135168 0)
(0.949496 -0.129715 0)
(0.957296 -0.124429 0)
(0.963321 -0.118953 0)
(0.969625 -0.113827 0)
(0.974813 -0.108729 0)
(0.979808 -0.104123 0)
(0.984483 -0.099746 0)
(0.988288 -0.0959623 0)
(0.992737 -0.0925962 0)
(0.995388 -0.0898854 0)
(0.999862 -0.0877763 0)
(1.00129 -0.0863431 0)
(1.00601 -0.0856972 0)
(-0.0195803 0.0082813 0)
(-0.0378017 0.0318966 0)
(-0.0410044 0.0392111 0)
(-0.0431123 0.0399913 0)
(-0.0420205 0.0383228 0)
(-0.0386002 0.0355629 0)
(-0.0333087 0.0324977 0)
(-0.0264942 0.02946 0)
(-0.0184016 0.0265431 0)
(-0.00933463 0.0238212 0)
(0.000542447 0.0212661 0)
(0.0110464 0.0188607 0)
(0.0220286 0.0166003 0)
(0.0333734 0.0144781 0)
(0.0449941 0.0124837 0)
(0.0568134 0.0106084 0)
(0.0687817 0.00884453 0)
(0.0808046 0.00719268 0)
(0.0929411 0.00565038 0)
(0.105125 0.0041923 0)
(0.11734 0.00279276 0)
(0.129581 0.00143586 0)
(0.14185 0.000111909 0)
(0.154153 -0.00118976 0)
(0.166507 -0.0024799 0)
(0.178908 -0.00376981 0)
(0.191402 -0.00506836 0)
(0.204003 -0.00639043 0)
(0.216744 -0.00775172 0)
(0.229673 -0.0091682 0)
(0.242822 -0.0106527 0)
(0.25623 -0.0122225 0)
(0.269936 -0.0138922 0)
(0.28398 -0.0156823 0)
(0.29841 -0.0176075 0)
(0.313252 -0.019689 0)
(0.328573 -0.0219347 0)
(0.344374 -0.0243705 0)
(0.360751 -0.0270177 0)
(0.377664 -0.0299019 0)
(0.395242 -0.0330431 0)
(0.413386 -0.0364645 0)
(0.432279 -0.0401877 0)
(0.451736 -0.0442318 0)
(0.472009 -0.0486224 0)
(0.492804 -0.0533728 0)
(0.514456 -0.058511 0)
(0.536519 -0.0640322 0)
(0.559436 -0.069964 0)
(0.58257 -0.0762716 0)
(0.606501 -0.0829772 0)
(0.630362 -0.0900032 0)
(0.654907 -0.0973635 0)
(0.678998 -0.104923 0)
(0.703621 -0.112688 0)
(0.727317 -0.120458 0)
(0.751363 -0.128245 0)
(0.773954 -0.135783 0)
(0.796735 -0.143104 0)
(0.817516 -0.149888 0)
(0.83839 -0.156215 0)
(0.856753 -0.161722 0)
(0.87521 -0.16657 0)
(0.890718 -0.170367 0)
(0.906449 -0.173375 0)
(0.918897 -0.175181 0)
(0.931822 -0.176167 0)
(0.941246 -0.175903 0)
(0.951504 -0.174887 0)
(0.958158 -0.172669 0)
(0.966074 -0.169861 0)
(0.970366 -0.165986 0)
(0.976366 -0.161749 0)
(0.978769 -0.156637 0)
(0.983296 -0.151422 0)
(0.984272 -0.145546 0)
(0.987725 -0.139827 0)
(0.987681 -0.133654 0)
(0.990383 -0.127874 0)
(0.989642 -0.121828 0)
(0.991824 -0.116375 0)
(0.990623 -0.110819 0)
(0.992429 -0.106022 0)
(0.99093 -0.10126 0)
(0.992419 -0.0973875 0)
(0.990721 -0.0936664 0)
(0.991876 -0.090936 0)
(0.990025 -0.0884571 0)
(0.990742 -0.0870372 0)
(0.988745 -0.0859534 0)
(-0.0189426 0.107835 0)
(-0.0181794 0.0727232 0)
(-0.0113609 0.0580276 0)
(0.00106957 0.0461397 0)
(0.0173243 0.0363362 0)
(0.0357077 0.0288131 0)
(0.0552882 0.0229147 0)
(0.0752855 0.0180897 0)
(0.0955985 0.013954 0)
(0.115584 0.0103265 0)
(0.135441 0.0071321 0)
(0.155018 0.00432212 0)
(0.174235 0.00182444 0)
(0.193061 -0.000422782 0)
(0.2115 -0.00246243 0)
(0.229527 -0.00432526 0)
(0.247172 -0.00603473 0)
(0.264399 -0.00761303 0)
(0.281275 -0.00907877 0)
(0.297778 -0.0104531 0)
(0.313922 -0.0117617 0)
(0.329741 -0.0130297 0)
(0.34527 -0.0142776 0)
(0.360543 -0.0155252 0)
(0.375597 -0.0167901 0)
(0.390464 -0.0180893 0)
(0.405192 -0.019435 0)
(0.419832 -0.0208375 0)
(0.434419 -0.0223079 0)
(0.449006 -0.0238663 0)
(0.463631 -0.0255281 0)
(0.478347 -0.0273143 0)
(0.493191 -0.0292383 0)
(0.50821 -0.031321 0)
(0.52344 -0.0335734 0)
(0.538917 -0.0360171 0)
(0.55468 -0.038662 0)
(0.570748 -0.0415317 0)
(0.587162 -0.044637 0)
(0.60392 -0.0480023 0)
(0.621068 -0.0516354 0)
(0.638568 -0.0555591 0)
(0.656475 -0.0597779 0)
(0.674705 -0.064312 0)
(0.69333 -0.0691616 0)
(0.712203 -0.0743424 0)
(0.731416 -0.0798506 0)
(0.750738 -0.0856912 0)
(0.770295 -0.0918493 0)
(0.789743 -0.0983084 0)
(0.809271 -0.105037 0)
(0.828392 -0.111988 0)
(0.847397 -0.11911 0)
(0.865619 -0.12632 0)
(0.883512 -0.13355 0)
(0.900191 -0.140672 0)
(0.916352 -0.147618 0)
(0.930853 -0.154215 0)
(0.944732 -0.160412 0)
(0.956528 -0.166 0)
(0.967731 -0.170977 0)
(0.976486 -0.175108 0)
(0.984849 -0.178471 0)
(0.990479 -0.180806 0)
(0.996102 -0.182305 0)
(0.998785 -0.182676 0)
(1.00201 -0.182243 0)
(1.00214 -0.180674 0)
(1.00348 -0.178431 0)
(1.00159 -0.175113 0)
(1.00163 -0.17133 0)
(0.998262 -0.166598 0)
(0.997541 -0.161663 0)
(0.993196 -0.155937 0)
(0.992168 -0.150287 0)
(0.987224 -0.144005 0)
(0.986209 -0.13807 0)
(0.98092 -0.131646 0)
(0.98011 -0.125813 0)
(0.974611 -0.119614 0)
(0.974094 -0.114218 0)
(0.968428 -0.108552 0)
(0.968215 -0.103873 0)
(0.962357 -0.0990012 0)
(0.962405 -0.0952696 0)
(0.956282 -0.0914027 0)
(0.956499 -0.0888009 0)
(0.949997 -0.0861047 0)
(0.950243 -0.0847659 0)
(0.943216 -0.0833572 0)
(0.0697613 0.00704028 0)
(0.0896368 0.00654388 0)
(0.153187 0.00610628 0)
(0.197947 0.00295726 0)
(0.23662 -0.00129945 0)
(0.271734 -0.00537017 0)
(0.304153 -0.00887039 0)
(0.33366 -0.0118175 0)
(0.361112 -0.0143255 0)
(0.386667 -0.0164704 0)
(0.410774 -0.0183365 0)
(0.433588 -0.0199734 0)
(0.455218 -0.021421 0)
(0.475773 -0.0227102 0)
(0.495358 -0.0238654 0)
(0.514052 -0.0249041 0)
(0.531928 -0.0258466 0)
(0.549043 -0.0267106 0)
(0.565458 -0.0275243 0)
(0.581226 -0.0283073 0)
(0.596395 -0.0290768 0)
(0.611023 -0.0298527 0)
(0.625161 -0.0306544 0)
(0.638867 -0.0315015 0)
(0.652189 -0.0324107 0)
(0.665184 -0.0333986 0)
(0.677899 -0.0344796 0)
(0.690394 -0.0356691 0)
(0.702705 -0.0369786 0)
(0.714885 -0.0384242 0)
(0.726966 -0.0400172 0)
(0.739001 -0.0417743 0)
(0.751013 -0.0437056 0)
(0.76305 -0.0458285 0)
(0.775125 -0.0481524 0)
(0.787277 -0.0506948 0)
(0.799508 -0.0534628 0)
(0.811848 -0.0564737 0)
(0.824285 -0.059732 0)
(0.836839 -0.0632548 0)
(0.849482 -0.0670431 0)
(0.862217 -0.0711123 0)
(0.875003 -0.0754576 0)
(0.88782 -0.0800917 0)
(0.900611 -0.0850022 0)
(0.913331 -0.0901977 0)
(0.925908 -0.0956561 0)
(0.938259 -0.101378 0)
(0.950311 -0.107324 0)
(0.961937 -0.113482 0)
(0.973073 -0.119791 0)
(0.983539 -0.126217 0)
(0.993312 -0.132678 0)
(1.00214 -0.139118 0)
(1.0101 -0.145434 0)
(1.01683 -0.151546 0)
(1.02258 -0.157341 0)
(1.02687 -0.162724 0)
(1.03018 -0.167591 0)
(1.03185 -0.171844 0)
(1.0327 -0.175412 0)
(1.03181 -0.178197 0)
(1.03044 -0.180191 0)
(1.02727 -0.181289 0)
(1.02414 -0.18157 0)
(1.01913 -0.180911 0)
(1.01483 -0.179501 0)
(1.00852 -0.177167 0)
(1.00365 -0.174231 0)
(0.996514 -0.170437 0)
(0.991609 -0.166255 0)
(0.983988 -0.161309 0)
(0.97941 -0.156233 0)
(0.97151 -0.150488 0)
(0.967481 -0.144888 0)
(0.959373 -0.1387 0)
(0.95599 -0.132934 0)
(0.947644 -0.126636 0)
(0.944923 -0.121033 0)
(0.936247 -0.11493 0)
(0.934165 -0.109781 0)
(0.925038 -0.10414 0)
(0.923553 -0.099701 0)
(0.913832 -0.0947527 0)
(0.912893 -0.0912353 0)
(0.902414 -0.0871709 0)
(0.90195 -0.0847427 0)
(0.890524 -0.0817063 0)
(0.890425 -0.0804744 0)
(0.877833 -0.0785503 0)
(0.773384 -0.00908932 0)
(0.774857 -0.0204555 0)
(0.775612 -0.0266201 0)
(0.777198 -0.0302675 0)
(0.780737 -0.0328699 0)
(0.786004 -0.0350213 0)
(0.792717 -0.0368506 0)
(0.800251 -0.03832 0)
(0.808371 -0.0394522 0)
(0.816874 -0.0402786 0)
(0.825581 -0.0408776 0)
(0.83436 -0.041318 0)
(0.843111 -0.0416433 0)
(0.851764 -0.0418797 0)
(0.860263 -0.0420457 0)
(0.868568 -0.0421564 0)
(0.876648 -0.0422276 0)
(0.884482 -0.0422764 0)
(0.892057 -0.0423222 0)
(0.899373 -0.0423844 0)
(0.906432 -0.0424817 0)
(0.913246 -0.0426335 0)
(0.919828 -0.0428587 0)
(0.926202 -0.0431761 0)
(0.932385 -0.0436026 0)
(0.938405 -0.0441546 0)
(0.944282 -0.0448478 0)
(0.950044 -0.0456973 0)
(0.955707 -0.0467154 0)
(0.961296 -0.0479137 0)
(0.966825 -0.0493018 0)
(0.972315 -0.0508898 0)
(0.977774 -0.0526861 0)
(0.983218 -0.0547004 0)
(0.988645 -0.0569399 0)
(0.994066 -0.0594137 0)
(0.99947 -0.0621269 0)
(1.00486 -0.0650872 0)
(1.01021 -0.0682976 0)
(1.01552 -0.0717639 0)
(1.02075 -0.0754859 0)
(1.02589 -0.079467 0)
(1.03088 -0.0837018 0)
(1.03571 -0.0881895 0)
(1.04029 -0.0929171 0)
(1.04461 -0.0978778 0)
(1.04858 -0.103047 0)
(1.05215 -0.108407 0)
(1.05524 -0.11392 0)
(1.05781 -0.119558 0)
(1.05975 -0.125262 0)
(1.06103 -0.130993 0)
(1.06156 -0.136673 0)
(1.06131 -0.142252 0)
(1.06023 -0.147631 0)
(1.05829 -0.152756 0)
(1.05551 -0.157519 0)
(1.05186 -0.161867 0)
(1.04744 -0.165695 0)
(1.0422 -0.168965 0)
(1.03639 -0.171583 0)
(1.02983 -0.173532 0)
(1.023 -0.174744 0)
(1.01549 -0.175221 0)
(1.00807 -0.17494 0)
(0.999948 -0.17391 0)
(0.992345 -0.172166 0)
(0.983854 -0.169705 0)
(0.976355 -0.166642 0)
(0.967582 -0.162924 0)
(0.960336 -0.158767 0)
(0.951219 -0.154024 0)
(0.944283 -0.149045 0)
(0.934676 -0.143544 0)
(0.928076 -0.138048 0)
(0.917806 -0.132075 0)
(0.911585 -0.12638 0)
(0.900482 -0.120223 0)
(0.894724 -0.114645 0)
(0.882633 -0.108585 0)
(0.877473 -0.103429 0)
(0.864241 -0.0977223 0)
(0.859848 -0.0932646 0)
(0.845289 -0.0881269 0)
(0.841845 -0.0845987 0)
(0.825711 -0.0801983 0)
(0.823388 -0.0777782 0)
(0.805349 -0.0742248 0)
(0.804292 -0.0730144 0)
(0.783941 -0.0703374 0)
(1.05702 0.00844404 0)
(1.06008 0.000110783 0)
(1.06076 -0.0069922 0)
(1.05998 -0.0125926 0)
(1.05906 -0.0171646 0)
(1.05871 -0.021115 0)
(1.05907 -0.0246194 0)
(1.05999 -0.0276876 0)
(1.06123 -0.0303154 0)
(1.06267 -0.0325205 0)
(1.0642 -0.0343459 0)
(1.06578 -0.0358448 0)
(1.06738 -0.0370692 0)
(1.06898 -0.0380645 0)
(1.07055 -0.0388696 0)
(1.07209 -0.0395191 0)
(1.07356 -0.0400446 0)
(1.07495 -0.040477 0)
(1.07626 -0.0408462 0)
(1.07747 -0.041182 0)
(1.07858 -0.0415128 0)
(1.07959 -0.0418661 0)
(1.08051 -0.0422677 0)
(1.08134 -0.0427418 0)
(1.08209 -0.043311 0)
(1.08277 -0.0439959 0)
(1.08338 -0.0448154 0)
(1.08393 -0.0457865 0)
(1.08443 -0.0469237 0)
(1.08489 -0.0482391 0)
(1.08529 -0.0497436 0)
(1.08566 -0.051446 0)
(1.08598 -0.0533543 0)
(1.08625 -0.0554749 0)
(1.08648 -0.0578131 0)
(1.08664 -0.0603732 0)
(1.08674 -0.0631589 0)
(1.08676 -0.0661724 0)
(1.08668 -0.0694156 0)
(1.08648 -0.0728884 0)
(1.08616 -0.0765896 0)
(1.08567 -0.0805155 0)
(1.085 -0.0846606 0)
(1.08411 -0.089016 0)
(1.08298 -0.0935697 0)
(1.08158 -0.0983053 0)
(1.07986 -0.103202 0)
(1.07781 -0.108233 0)
(1.07539 -0.113368 0)
(1.07258 -0.11857 0)
(1.06933 -0.123794 0)
(1.06565 -0.128993 0)
(1.06149 -0.134108 0)
(1.05688 -0.139084 0)
(1.05178 -0.143849 0)
(1.04624 -0.148346 0)
(1.04023 -0.152498 0)
(1.03381 -0.156255 0)
(1.02697 -0.159538 0)
(1.01978 -0.162311 0)
(1.01222 -0.164497 0)
(1.00436 -0.166078 0)
(0.996185 -0.166982 0)
(0.987701 -0.16722 0)
(0.978957 -0.166733 0)
(0.969817 -0.165565 0)
(0.96047 -0.163678 0)
(0.950549 -0.161147 0)
(0.940522 -0.157959 0)
(0.929644 -0.1542 0)
(0.918873 -0.149883 0)
(0.906872 -0.145078 0)
(0.895375 -0.139859 0)
(0.882145 -0.134253 0)
(0.870071 -0.128431 0)
(0.855586 -0.122326 0)
(0.843225 -0.116246 0)
(0.827508 -0.109958 0)
(0.815257 -0.103974 0)
(0.798318 -0.0978055 0)
(0.786655 -0.0922608 0)
(0.768424 -0.0864733 0)
(0.757881 -0.0816732 0)
(0.738127 -0.0764565 0)
(0.729277 -0.0726486 0)
(0.707531 -0.0681096 0)
(0.701007 -0.0654849 0)
(0.67651 -0.0616476 0)
(0.67307 -0.0603293 0)
(0.644749 -0.0571255 0)
(1.08181 -0.00308863 0)
(1.08777 -0.0106229 0)
(1.09207 -0.0179089 0)
(1.09475 -0.0239506 0)
(1.09628 -0.0286045 0)
(1.09727 -0.0321957 0)
(1.09813 -0.0350825 0)
(1.09899 -0.0374917 0)
(1.09987 -0.0395161 0)
(1.10071 -0.041183 0)
(1.10147 -0.0425062 0)
(1.10213 -0.0435108 0)
(1.1027 -0.0442354 0)
(1.10318 -0.0447261 0)
(1.10359 -0.0450287 0)
(1.10392 -0.0451857 0)
(1.10418 -0.0452357 0)
(1.10435 -0.0452139 0)
(1.10444 -0.0451529 0)
(1.10443 -0.045084 0)
(1.10433 -0.0450367 0)
(1.10414 -0.0450389 0)
(1.10385 -0.0451162 0)
(1.10348 -0.0452922 0)
(1.10302 -0.0455883 0)
(1.10247 -0.0460236 0)
(1.10185 -0.0466147 0)
(1.10114 -0.0473761 0)
(1.10036 -0.0483201 0)
(1.0995 -0.0494567 0)
(1.09856 -0.050794 0)
(1.09755 -0.0523382 0)
(1.09645 -0.0540941 0)
(1.09528 -0.0560653 0)
(1.09401 -0.0582544 0)