/*--------------------------------*- C++ -*----------------------------------*\
| =========                 |                                                 |
| \\      /  F ield         | OpenFOAM: The Open Source CFD Toolbox           |
|  \\    /   O peration     | Version:  2306                                  |
|   \\  /    A nd           | Website:  www.openfoam.com                      |
|    \\/     M anipulation  |                                                 |
\*---------------------------------------------------------------------------*/
FoamFile
{
    version     2.0;
    format      ascii;
    arch        "LSB;label=32;scalar=64";
    class       surfaceScalarField;
    location    "0.39";
    object      phi;
}
// * * * * * * * * * * * * * * * * * * * * * * * * * * * * * * * * * * * * * //

dimensions      [0 3 -1 0 0 0 0];

oriented        oriented;

internalField   nonuniform List<scalar> 
94400
(
7.3514e-06
2.6486e-06
5.10551e-06
2.24589e-06
3.71254e-06
1.39297e-06
2.84757e-06
8.6497e-07
2.29182e-06
5.55758e-07
1.91981e-06
3.72003e-07
1.65897e-06
2.60842e-07
1.46775e-06
1.91221e-07
1.32225e-06
1.455e-07
1.20826e-06
1.13986e-07
1.11695e-06
9.13163e-08
1.04253e-06
7.44196e-08
9.81071e-07
6.14569e-08
9.29795e-07
5.12759e-08
8.86671e-07
4.31238e-08
8.50181e-07
3.64901e-08
8.19164e-07
3.10172e-08
7.92716e-07
2.64482e-08
7.70122e-07
2.25938e-08
7.5081e-07
1.9312e-08
7.34315e-07
1.64942e-08
7.20259e-07
1.4056e-08
7.08329e-07
1.19309e-08
6.98263e-07
1.00656e-08
6.89846e-07
8.41692e-09
6.82897e-07
6.94926e-09
6.77264e-07
5.63284e-09
6.72822e-07
4.44238e-09
6.69466e-07
3.35595e-09
6.67112e-07
2.3542e-09
6.65692e-07
1.41955e-09
6.65157e-07
5.3547e-10
6.65471e-07
-3.14102e-10
6.66616e-07
-1.14556e-09
6.68593e-07
-1.97663e-09
6.7142e-07
-2.82754e-09
6.75143e-07
-3.72279e-09
6.79837e-07
-4.6941e-09
6.85622e-07
-5.7851e-09
6.92682e-07
-7.05976e-09
7.01301e-07
-8.61875e-09
7.11934e-07
-1.06335e-08
7.25357e-07
-1.34224e-08
7.42988e-07
-1.76309e-08
7.67659e-07
-2.46712e-08
8.05444e-07
-3.77854e-08
8.70095e-07
-6.46503e-08
9.94641e-07
-1.24546e-07
1.26473e-06
-2.70088e-07
-6.37186e-07
1.90192e-06
1.01831e-05
2.46545e-06
9.21641e-06
3.21262e-06
7.94626e-06
2.66312e-06
6.79703e-06
2.01419e-06
5.8611e-06
1.4917e-06
5.12472e-06
1.10838e-06
4.54841e-06
8.37157e-07
4.09392e-06
6.45706e-07
3.73105e-06
5.0837e-07
3.43744e-06
4.07599e-07
3.19687e-06
3.31887e-07
2.99758e-06
2.73713e-07
2.83093e-06
2.281e-07
2.69052e-06
1.91692e-07
2.57147e-06
1.62176e-07
2.47004e-06
1.37917e-07
2.38331e-06
1.17742e-07
2.30898e-06
1.00783e-07
2.24518e-06
8.63931e-08
2.19041e-06
7.40794e-08
2.14345e-06
6.34598e-08
2.10327e-06
5.42349e-08
2.06903e-06
4.61662e-08
2.04004e-06
3.90612e-08
2.01569e-06
3.27627e-08
1.9955e-06
2.71401e-08
1.97905e-06
2.20833e-08
1.96599e-06
1.74983e-08
1.95605e-06
1.33027e-08
1.94898e-06
9.42314e-09
1.94461e-06
5.79204e-09
1.9428e-06
2.34522e-09
1.94346e-06
-9.81019e-10
1.94657e-06
-4.25296e-09
1.95214e-06
-7.54362e-09
1.96025e-06
-1.09383e-08
1.97107e-06
-1.45426e-08
1.98487e-06
-1.84952e-08
2.00207e-06
-2.29887e-08
2.02332e-06
-2.83042e-08
2.04957e-06
-3.48743e-08
2.08234e-06
-4.33979e-08
2.12398e-06
-5.50605e-08
2.17831e-06
-7.19688e-08
2.25166e-06
-9.80207e-08
2.35448e-06
-1.40606e-07
2.50362e-06
-2.13791e-07
2.72349e-06
-3.4441e-07
3.03582e-06
-5.82423e-07
-9.95761e-07
3.3944e-06
1.05345e-05
1.93093e-06
1.04951e-05
3.25202e-06
9.90361e-06
3.25463e-06
9.0917e-06
2.8261e-06
8.26037e-06
2.32302e-06
7.49873e-06
1.87002e-06
6.83568e-06
1.5002e-06
6.27167e-06
1.20972e-06
5.79604e-06
9.84003e-07
5.39545e-06
8.08189e-07
5.05727e-06
6.70059e-07
4.7707e-06
5.6029e-07
4.52681e-06
4.71984e-07
4.31842e-06
4.00081e-07
4.13974e-06
3.40862e-07
3.98608e-06
2.91573e-07
3.85367e-06
2.5015e-07
3.73943e-06
2.1503e-07
3.64081e-06
1.85013e-07
3.55572e-06
1.59166e-07
3.48242e-06
1.36755e-07
3.41946e-06
1.17196e-07
3.36561e-06
1.00018e-07
3.31983e-06
8.48368e-08
3.28126e-06
7.13338e-08
3.24916e-06
5.92435e-08
3.2229e-06
4.83397e-08
3.20198e-06
3.84273e-08
3.18594e-06
2.93342e-08
3.17446e-06
2.09054e-08
3.16726e-06
1.29972e-08
3.16413e-06
5.47146e-09
3.16496e-06
-1.81004e-09
3.1697e-06
-8.99259e-09
3.17839e-06
-1.62372e-08
3.19119e-06
-2.37329e-08
3.20836e-06
-3.17134e-08
3.23035e-06
-4.0484e-08
3.25782e-06
-5.04622e-08
3.29176e-06
-6.22436e-08
3.3336e-06
-7.67114e-08
3.38542e-06
-9.52204e-08
3.45027e-06
-1.19912e-07
3.53255e-06
-1.5425e-07
3.63846e-06
-2.0393e-07
3.77617e-06
-2.78316e-07
3.95481e-06
-3.92427e-07
4.17957e-06
-5.69172e-07
4.43658e-06
-8.39436e-07
-1.22581e-06
4.66663e-06
1.04653e-05
1.46561e-06
1.07771e-05
2.94026e-06
1.06758e-05
3.35591e-06
1.02725e-05
3.22938e-06
9.71463e-06
2.88093e-06
9.10801e-06
2.47664e-06
8.51515e-06
2.09305e-06
7.96691e-06
1.75796e-06
7.47488e-06
1.47604e-06
7.04041e-06
1.24266e-06
6.66003e-06
1.05044e-06
6.32838e-06
8.91935e-07
6.03972e-06
7.60644e-07
5.78858e-06
6.51219e-07
5.57006e-06
5.59386e-07
5.37987e-06
4.81767e-07
5.21431e-06
4.15704e-07
5.07025e-06
3.59095e-07
4.94498e-06
3.10277e-07
4.83623e-06
2.67919e-07
4.74203e-06
2.30952e-07
4.66073e-06
1.98504e-07
4.59088e-06
1.69864e-07
4.53128e-06
1.44442e-07
4.48087e-06
1.21742e-07
4.43877e-06
1.01345e-07
4.40421e-06
8.28919e-08
4.37657e-06
6.60679e-08
4.35531e-06
5.05935e-08
4.34001e-06
3.62143e-08
4.33031e-06
2.26923e-08
4.32599e-06
9.79707e-09
4.32688e-06
-2.70342e-09
4.33294e-06
-1.50541e-08
4.34423e-06
-2.75268e-08
4.36094e-06
-4.04385e-08
4.3834e-06
-5.41786e-08
4.41216e-06
-6.9247e-08
4.44801e-06
-8.63116e-08
4.49207e-06
-1.06297e-07
4.54587e-06
-1.30519e-07
4.61155e-06
-1.60894e-07
4.6919e-06
-2.00259e-07
4.7905e-06
-2.52851e-07
4.91154e-06
-3.24975e-07
5.05905e-06
-4.25819e-07
5.23471e-06
-5.68096e-07
5.43322e-06
-7.67673e-07
5.63379e-06
-1.04001e-06
-1.38704e-06
5.79502e-06
1.0342e-05
1.12359e-06
1.07373e-05
2.54503e-06
1.09003e-05
3.19284e-06
1.08068e-05
3.32291e-06
1.05226e-05
3.16516e-06
1.01251e-05
2.87415e-06
9.67674e-06
2.54137e-06
9.21984e-06
2.21486e-06
8.77956e-06
1.91632e-06
8.36917e-06
1.65304e-06
7.99444e-06
1.42517e-06
7.65666e-06
1.22971e-06
7.35473e-06
1.06258e-06
7.0863e-06
9.19642e-07
6.84857e-06
7.97116e-07
6.63861e-06
6.91727e-07
6.45361e-06
6.00707e-07
6.29095e-06
5.21749e-07
6.14829e-06
4.52945e-07
6.02349e-06
3.92712e-07
5.91471e-06
3.39739e-07
5.82028e-06
2.92933e-07
5.73876e-06
2.5138e-07
5.6689e-06
2.14305e-07
5.60959e-06
1.81051e-07
5.55988e-06
1.51051e-07
5.51896e-06
1.23812e-07
5.48613e-06
9.88975e-08
5.46081e-06
7.59153e-08
5.44252e-06
5.45047e-08
5.43089e-06
3.43252e-08
5.42564e-06
1.5045e-08
5.42661e-06
-3.67205e-09
5.43374e-06
-2.21806e-08
5.44708e-06
-4.08727e-08
5.46685e-06
-6.02024e-08
5.49339e-06
-8.07187e-08
5.52725e-06
-1.03112e-07
5.56922e-06
-1.28281e-07
5.62035e-06
-1.57428e-07
5.68203e-06
-1.92194e-07
5.75599e-06
-2.34851e-07
5.84429e-06
-2.88565e-07
5.94917e-06
-3.57727e-07
6.07251e-06
-4.48321e-07
6.21487e-06
-5.68175e-07
6.37351e-06
-7.26733e-07
6.53949e-06
-9.33655e-07
6.69452e-06
-1.19504e-06
-1.50526e-06
6.81274e-06
1.02416e-05
8.81949e-07
1.06171e-05
2.1696e-06
1.08951e-05
2.91479e-06
1.09957e-05
3.22237e-06
1.09248e-05
3.23599e-06
1.07228e-05
3.07613e-06
1.04357e-05
2.82855e-06
1.01024e-05
2.5481e-06
9.75202e-06
2.26672e-06
9.40388e-06
2.00119e-06
9.07003e-06
1.75902e-06
8.75729e-06
1.54245e-06
8.46897e-06
1.3509e-06
8.20614e-06
1.18248e-06
7.9685e-06
1.03475e-06
7.75501e-06
9.05223e-07
7.56418e-06
7.91535e-07
7.39437e-06
6.91558e-07
7.2439e-06
6.03415e-07
7.11114e-06
5.25476e-07
6.99454e-06
4.56337e-07
6.89268e-06
3.94787e-07
6.80428e-06
3.39784e-07
6.72816e-06
2.90425e-07
6.66328e-06
2.45928e-07
6.60873e-06
2.05603e-07
6.5637e-06
1.68841e-07
6.5275e-06
1.35098e-07
6.49954e-06
1.03873e-07
6.47934e-06
7.47048e-08
6.46652e-06
4.71511e-08
6.46078e-06
2.07791e-08
6.46196e-06
-4.8512e-09
6.46998e-06
-3.02039e-08
6.4849e-06
-5.57889e-08
6.50689e-06
-8.21901e-08
6.53627e-06
-1.10101e-07
6.57353e-06
-1.40376e-07
6.61935e-06
-1.74093e-07
6.67456e-06
-2.12647e-07
6.74023e-06
-2.57863e-07
6.81753e-06
-3.12151e-07
6.90765e-06
-3.78679e-07
7.01147e-06
-4.61554e-07
7.12909e-06
-5.65933e-07
7.25883e-06
-6.97918e-07
7.39604e-06
-8.63942e-07
7.53163e-06
-1.06925e-06
7.65162e-06
-1.31502e-06
-1.59388e-06
7.74024e-06
1.01727e-05
7.09201e-07
1.0498e-05
1.84434e-06
1.08084e-05
2.60442e-06
1.10139e-05
3.01689e-06
1.10882e-05
3.16166e-06
1.10418e-05
3.12253e-06
1.09008e-05
2.96956e-06
1.06942e-05
2.75471e-06
1.04476e-05
2.51325e-06
1.01814e-05
2.26741e-06
9.91024e-06
2.0302e-06
9.64421e-06
1.80848e-06
9.38986e-06
1.60526e-06
9.15108e-06
1.42126e-06
8.92995e-06
1.25588e-06
8.72729e-06
1.10788e-06
8.54313e-06
9.75701e-07
8.37695e-06
8.57735e-07
8.22796e-06
7.52406e-07
8.09519e-06
6.58249e-07
7.9776e-06
5.73928e-07
7.87414e-06
4.98241e-07
7.78381e-06
4.30115e-07
7.70565e-06
3.68591e-07
7.63876e-06
3.12813e-07
7.58235e-06
2.62014e-07
7.53569e-06
2.155e-07
7.49815e-06
1.72639e-07
7.46918e-06
1.32843e-07
7.44832e-06
9.55603e-08
7.43522e-06
6.02595e-08
7.42958e-06
2.64151e-08
7.43124e-06
-6.508e-09
7.44011e-06
-3.90735e-08
7.45621e-06
-7.18963e-08
7.4797e-06
-1.05671e-07
7.5108e-06
-1.4121e-07
7.54991e-06
-1.79486e-07
7.59752e-06
-2.21697e-07
7.65421e-06
-2.69335e-07
7.72062e-06
-3.24281e-07
7.79737e-06
-3.88901e-07
7.88484e-06
-4.66143e-07
7.98288e-06
-5.59592e-07
8.09036e-06
-6.73418e-07
8.20454e-06
-8.12096e-07
8.32032e-06
-9.7972e-07
8.42981e-06
-1.17874e-06
8.52282e-06
-1.40803e-06
-1.66064e-06
8.58958e-06
1.01274e-05
5.81812e-07
1.04004e-05
1.57135e-06
1.07032e-05
2.30156e-06
1.09558e-05
2.76437e-06
1.1119e-05
2.99842e-06
1.11845e-05
3.05699e-06
1.11619e-05
2.99222e-06
1.10685e-05
2.84807e-06
1.09236e-05
2.65813e-06
1.07447e-05
2.44632e-06
1.05463e-05
2.22867e-06
1.03394e-05
2.01533e-06
1.01324e-05
1.81229e-06
9.93094e-06
1.6227e-06
9.73894e-06
1.44788e-06
9.55879e-06
1.28803e-06
9.39186e-06
1.14263e-06
9.23878e-06
1.01082e-06
9.09965e-06
8.91536e-07
8.97424e-06
7.83654e-07
8.86211e-06
6.86059e-07
8.76267e-06
5.97678e-07
8.67528e-06
5.17504e-07
8.59927e-06
4.44601e-07
8.53398e-06
3.78107e-07
8.47877e-06
3.17222e-07
8.43306e-06
2.61209e-07
8.39632e-06
2.09378e-07
8.36809e-06
1.61079e-07
8.34795e-06
1.15693e-07
8.3356e-06
7.26151e-08
8.33077e-06
3.12434e-08
8.3333e-06
-9.03637e-09
8.34309e-06
-4.88703e-08
8.36016e-06
-8.8958e-08
8.38456e-06
-1.3008e-07
8.41649e-06
-1.73131e-07
8.45616e-06
-2.19159e-07
8.50388e-06
-2.69417e-07
8.55996e-06
-3.25416e-07
8.62466e-06
-3.88985e-07
8.69809e-06
-4.62328e-07
8.78e-06
-5.48052e-07
8.86955e-06
-6.49142e-07
8.96496e-06
-7.68823e-07
9.06309e-06
-9.1023e-07
9.15917e-06
-1.0758e-06
9.24678e-06
-1.26635e-06
9.3186e-06
-1.47985e-06
-1.71036e-06
9.36832e-06
1.00972e-05
4.84621e-07
1.03247e-05
1.34384e-06
1.06037e-05
2.02254e-06
1.08694e-05
2.49874e-06
1.10812e-05
2.78659e-06
1.12211e-05
2.91705e-06
1.12871e-05
2.9262e-06
1.12868e-05
2.84839e-06
1.12322e-05
2.71273e-06
1.11365e-05
2.54206e-06
1.10119e-05
2.35326e-06
1.0869e-05
2.15825e-06
1.07162e-05
1.96501e-06
1.05603e-05
1.77864e-06
1.0406e-05
1.60214e-06
1.0257e-05
1.4371e-06
1.01155e-05
1.28411e-06
9.98319e-06
1.14313e-06
9.86098e-06
1.01374e-06
9.74935e-06
8.95284e-07
9.64844e-06
7.86975e-07
9.55814e-06
6.87973e-07
9.47822e-06
5.97423e-07
9.40834e-06
5.14486e-07
9.3481e-06
4.38351e-07
9.29708e-06
3.68242e-07
9.25487e-06
3.03415e-07
9.22109e-06
2.43162e-07
9.19536e-06
1.86801e-07
9.17739e-06
1.33667e-07
9.1669e-06
8.31069e-08
9.16368e-06
3.44629e-08
9.16758e-06
-1.29382e-08
9.17851e-06
-5.98032e-08
9.19645e-06
-1.06892e-07
9.22141e-06
-1.55042e-07
9.25347e-06
-2.05195e-07
9.29275e-06
-2.58432e-07
9.33934e-06
-3.16007e-07
9.3933e-06
-3.79384e-07
9.45459e-06
-4.50275e-07
9.52292e-06
-5.30653e-07
9.59761e-06
-6.22743e-07
9.67741e-06
-7.28947e-07
9.76027e-06
-8.51682e-07
9.84311e-06
-9.93064e-07
9.92173e-06
-1.15443e-06
9.99106e-06
-1.33568e-06
1.00458e-05
-1.53459e-06
-1.74628e-06
1.00817e-05
1.00765e-05
4.08152e-07
1.02668e-05
1.15353e-06
1.05172e-05
1.7721e-06
1.07777e-05
2.23829e-06
1.10114e-05
2.55281e-06
1.11969e-05
2.73155e-06
1.13253e-05
2.79783e-06
1.13968e-05
2.77689e-06
1.14173e-05
2.69229e-06
1.13951e-05
2.56417e-06
1.13397e-05
2.40867e-06
1.12598e-05
2.23813e-06
1.11633e-05
2.06158e-06
1.10565e-05
1.88537e-06
1.09449e-05
1.71381e-06
1.08324e-05
1.54961e-06
1.07221e-05
1.39439e-06
1.06163e-05
1.24895e-06
1.05165e-05
1.11351e-06
1.04238e-05
9.87943e-07
1.03389e-05
8.71862e-07
1.02622e-05
7.64723e-07
1.01937e-05
6.6589e-07
1.01335e-05
5.7468e-07
1.00815e-05
4.90386e-07
1.00374e-05
4.12298e-07
1.00011e-05
3.39712e-07
9.97237e-06
2.71933e-07
9.9509e-06
2.08275e-07
9.93651e-06
1.48059e-07
9.92901e-06
9.06054e-08
9.92825e-06
3.52247e-08
9.9341e-06
-1.87924e-08
9.94649e-06
-7.21896e-08
9.96536e-06
-1.25762e-07
9.99069e-06
-1.80374e-07
1.00225e-05
-2.36984e-07
1.00607e-05
-2.96665e-07
1.01053e-05
-3.60633e-07
1.01562e-05
-4.30265e-07
1.02131e-05
-5.0711e-07
1.02753e-05
-5.9289e-07
1.0342e-05
-6.89454e-07
1.04117e-05
-7.98692e-07
1.04824e-05
-9.22369e-07
1.05512e-05
-1.06186e-06
1.06146e-05
-1.21781e-06
1.06686e-05
-1.38965e-06
1.07093e-05
-1.57526e-06
-1.77069e-06
1.07337e-05
1.00617e-05
3.46403e-07
1.02223e-05
9.9302e-07
1.04446e-05
1.54974e-06
1.06909e-05
1.99198e-06
1.09301e-05
2.31367e-06
1.11405e-05
2.52113e-06
1.131e-05
2.62831e-06
1.14342e-05
2.65275e-06
1.15139e-05
2.61255e-06
1.15536e-05
2.52447e-06
1.15594e-05
2.40291e-06
1.15378e-05
2.25966e-06
1.14955e-05
2.10395e-06
1.14381e-05
1.94276e-06
1.13707e-05
1.7812e-06
1.12974e-05
1.62285e-06
1.12217e-05
1.47012e-06
1.11461e-05
1.32454e-06
1.10727e-05
1.18697e-06
1.10028e-05
1.05777e-06
1.09377e-05
9.36982e-07
1.08781e-05
8.2439e-07
1.08243e-05
7.19614e-07
1.07768e-05
6.22164e-07
1.07358e-05
5.31478e-07
1.07011e-05
4.46949e-07
1.06729e-05
3.67944e-07
1.0651e-05
2.93814e-07
1.06354e-05
2.23898e-07
1.06259e-05
1.57527e-07
1.06225e-05
9.40206e-08
1.0625e-05
3.26809e-08
1.06335e-05
-2.72143e-08
1.06477e-05
-8.64221e-08
1.06677e-05
-1.45747e-07
1.06934e-05
-2.06057e-07
1.07247e-05
-2.68297e-07
1.07615e-05
-3.33504e-07
1.08037e-05
-4.02825e-07
1.0851e-05
-4.77523e-07
1.09028e-05
-5.58972e-07
1.09586e-05
-6.48642e-07
1.10172e-05
-7.48043e-07
1.10771e-05
-8.58637e-07
1.11364e-05
-9.81689e-07
1.11926e-05
-1.11806e-06
1.12428e-05
-1.26795e-06
1.12837e-05
-1.43061e-06
1.13126e-05
-1.60411e-06
-1.78529e-06
1.13272e-05
1.00509e-05
2.95458e-07
1.01877e-05
8.56294e-07
1.03845e-05
1.35293e-06
1.0613e-05
1.76346e-06
1.08478e-05
2.07888e-06
1.10691e-05
2.29981e-06
1.12638e-05
2.43365e-06
1.14246e-05
2.49195e-06
1.15491e-05
2.48798e-06
1.16386e-05
2.43505e-06
1.16961e-05
2.34538e-06
1.17262e-05
2.2296e-06
1.17336e-05
2.09652e-06
1.17231e-05
1.9532e-06
1.16992e-05
1.80512e-06
1.16657e-05
1.65639e-06
1.16258e-05
1.50998e-06
1.15824e-05
1.36799e-06
1.15375e-05
1.2318e-06
1.14931e-05
1.10224e-06
1.14503e-05
9.79725e-07
1.14103e-05
8.64378e-07
1.13739e-05
7.56083e-07
1.13415e-05
6.54561e-07
1.13135e-05
5.59418e-07
1.12903e-05
4.70175e-07
1.1272e-05
3.86294e-07
1.12586e-05
3.07195e-07
1.12502e-05
2.32268e-07
1.12468e-05
1.60876e-07
1.12485e-05
9.23607e-08
1.12552e-05
2.60363e-08
1.12668e-05
-3.88101e-08
1.12833e-05
-1.02928e-07
1.13046e-05
-1.67109e-07
1.13308e-05
-2.32201e-07
1.13616e-05
-2.99112e-07
1.13969e-05
-3.68824e-07
1.14365e-05
-4.42397e-07
1.14799e-05
-5.20964e-07
1.15267e-05
-6.05727e-07
1.15759e-05
-6.97921e-07
1.16267e-05
-7.98763e-07
1.16774e-05
-9.0937e-07
1.17263e-05
-1.03063e-06
1.17713e-05
-1.16306e-06
1.181e-05
-1.30659e-06
1.18398e-05
-1.46043e-06
1.18586e-05
-1.62288e-06
-1.7914e-06
1.18647e-05
1.00428e-05
2.52666e-07
1.01605e-05
7.38634e-07
1.03349e-05
1.1785e-06
1.05449e-05
1.55347e-06
1.077e-05
1.85374e-06
1.09931e-05
2.0767e-06
1.12013e-05
2.22545e-06
1.13862e-05
2.30708e-06
1.15433e-05
2.33091e-06
1.16712e-05
2.30709e-06
1.1771e-05
2.2456e-06
1.1845e-05
2.15559e-06
1.18965e-05
2.04507e-06
1.19289e-05
1.92078e-06
1.19458e-05
1.78818e-06
1.19506e-05
1.6516e-06
1.19462e-05
1.51436e-06
1.19353e-05
1.37894e-06
1.192e-05
1.24711e-06
1.19022e-05
1.12006e-06
1.18833e-05
9.98567e-07
1.18647e-05
8.83029e-07
1.18472e-05
7.73589e-07
1.18315e-05
6.70178e-07
1.18184e-05
5.72574e-07
1.18081e-05
4.80437e-07
1.18011e-05
3.93341e-07
1.17975e-05
3.10791e-07
1.17975e-05
2.32244e-07
1.18013e-05
1.57115e-07
1.18088e-05
8.47841e-08
1.18203e-05
1.45975e-08
1.18356e-05
-5.41304e-08
1.18548e-05
-1.22122e-07
1.18778e-05
-1.90139e-07
1.19046e-05
-2.58989e-07
1.1935e-05
-3.29529e-07
1.19689e-05
-4.02669e-07
1.20059e-05
-4.79369e-07
1.20455e-05
-5.60637e-07
1.20873e-05
-6.47505e-07
1.21304e-05
-7.41e-07
1.21737e-05
-8.42095e-07
1.2216e-05
-9.51635e-07
1.22556e-05
-1.07024e-06
1.22907e-05
-1.19817e-06
1.23193e-05
-1.33523e-06
1.23395e-05
-1.48064e-06
1.23496e-05
-1.63294e-06
-1.79007e-06
1.23483e-05
1.00365e-05
2.16165e-07
1.01388e-05
6.36353e-07
1.0294e-05
1.02333e-06
1.04861e-05
1.3613e-06
1.06991e-05
1.64073e-06
1.09184e-05
1.85742e-06
1.11321e-05
2.01175e-06
1.13316e-05
2.10764e-06
1.15111e-05
2.15133e-06
1.16679e-05
2.15029e-06
1.18011e-05
2.11241e-06
1.19114e-05
2.04529e-06
1.20006e-05
1.95593e-06
1.20709e-05
1.85045e-06
1.2125e-05
1.73408e-06
1.21655e-05
1.6111e-06
1.21949e-05
1.48494e-06
1.22155e-05
1.3583e-06
1.22295e-05
1.23318e-06
1.22385e-05
1.11107e-06
1.2244e-05
9.92984e-07
1.22475e-05
8.7958e-07
1.22499e-05
7.71214e-07
1.2252e-05
6.6801e-07
1.22547e-05
5.69909e-07
1.22584e-05
4.76711e-07
1.22637e-05
3.88103e-07
1.22708e-05
3.03685e-07
1.228e-05
2.22991e-07
1.22916e-05
1.455e-07
1.23058e-05
7.06438e-08
1.23226e-05
-2.18351e-09
1.23421e-05
-7.36262e-08
1.23643e-05
-1.44365e-07
1.23893e-05
-2.15116e-07
1.24169e-05
-2.86634e-07
1.24471e-05
-3.59712e-07
1.24796e-05
-4.35179e-07
1.25141e-05
-5.13894e-07
1.25502e-05
-5.96739e-07
1.25873e-05
-6.84591e-07
1.26246e-05
-7.783e-07
1.26612e-05
-8.78635e-07
1.26958e-05
-9.86229e-07
1.2727e-05
-1.1015e-06
1.27534e-05
-1.22456e-06
1.27733e-05
-1.35514e-06
1.27852e-05
-1.49249e-06
1.27876e-05
-1.6354e-06
-1.78215e-06
1.27797e-05
1.00316e-05
1.84605e-07
1.01214e-05
5.46557e-07
1.02601e-05
8.84565e-07
1.04359e-05
1.18551e-06
1.0636e-05
1.44066e-06
1.08482e-05
1.64521e-06
1.1062e-05
1.79791e-06
1.12691e-05
1.90054e-06
1.14634e-05
1.95702e-06
1.1641e-05
1.9727e-06
1.17998e-05
1.95359e-06
1.19393e-05
1.90584e-06
1.20599e-05
1.83536e-06
1.21628e-05
1.74755e-06
1.22497e-05
1.64717e-06
1.23225e-05
1.5383e-06
1.23831e-05
1.4243e-06
1.24335e-05
1.3079e-06
1.24755e-05
1.19125e-06
1.25105e-05
1.07599e-06
1.25402e-05
9.63319e-07
1.25657e-05
8.54068e-07
1.25881e-05
7.48771e-07
1.26084e-05
6.47713e-07
1.26274e-05
5.50977e-07
1.26456e-05
4.58491e-07
1.26637e-05
3.70049e-07
1.2682e-05
2.85349e-07
1.2701e-05
2.04004e-07
1.27209e-05
1.25564e-07
1.2742e-05
4.95215e-08
1.27645e-05
-2.46729e-08
1.27885e-05
-9.76109e-08
1.28141e-05
-1.6992e-07
1.28412e-05
-2.42261e-07
1.28699e-05
-3.15327e-07
1.29e-05
-3.89838e-07
1.29314e-05
-4.66539e-07
1.29637e-05
-5.46187e-07
1.29965e-05
-6.29545e-07
1.30292e-05
-7.17353e-07
1.30613e-05
-8.10305e-07
1.30916e-05
-9.09008e-07
1.31193e-05
-1.01393e-06
1.31432e-05
-1.12534e-06
1.31619e-05
-1.24326e-06
1.31741e-05
-1.36738e-06
1.31786e-05
-1.49702e-06
1.31744e-05
-1.63114e-06
-1.76833e-06
1.31606e-05
1.00276e-05
1.56973e-07
1.01072e-05
4.66949e-07
1.02321e-05
7.59691e-07
1.03932e-05
1.02439e-06
1.05806e-05
1.25333e-06
1.07841e-05
1.44167e-06
1.09947e-05
1.58731e-06
1.12046e-05
1.69061e-06
1.14078e-05
1.75387e-06
1.15998e-05
1.78073e-06
1.17777e-05
1.77568e-06
1.19399e-05
1.74356e-06
1.20861e-05
1.68923e-06
1.22163e-05
1.6173e-06
1.23315e-05
1.532e-06
1.24328e-05
1.43702e-06
1.25215e-05
1.33556e-06
1.25991e-05
1.23026e-06
1.26671e-05
1.12327e-06
1.27268e-05
1.01629e-06
1.27795e-05
9.10629e-07
1.28264e-05
8.07221e-07
1.28684e-05
7.06724e-07
1.29066e-05
6.09544e-07
1.29417e-05
5.15881e-07
1.29744e-05
4.25767e-07
1.30054e-05
3.39095e-07
1.30351e-05
2.5565e-07
1.30639e-05
1.75124e-07
1.30924e-05
9.71377e-08
1.31206e-05
2.12499e-08
1.3149e-05
-5.3029e-08
1.31776e-05
-1.26231e-07
1.32066e-05
-1.98923e-07
1.32361e-05
-2.71705e-07
1.32659e-05
-3.45199e-07
1.32961e-05
-4.20053e-07
1.33265e-05
-4.96922e-07
1.33568e-05
-5.76469e-07
1.33866e-05
-6.59344e-07
1.34154e-05
-7.46167e-07
1.34426e-05
-8.37499e-07
1.34674e-05
-9.33814e-07
1.34889e-05
-1.03545e-06
1.35062e-05
-1.14259e-06
1.35181e-05
-1.25516e-06
1.35236e-05
-1.37285e-06
1.35216e-05
-1.49507e-06
1.35114e-05
-1.62091e-06
-1.7492e-06
1.34922e-05
1.00245e-05
1.32491e-07
1.00958e-05
3.95679e-07
1.02089e-05
6.46513e-07
1.03572e-05
8.76147e-07
1.05326e-05
1.07795e-06
1.07269e-05
1.24735e-06
1.09323e-05
1.3819e-06
1.11418e-05
1.48111e-06
1.13495e-05
1.54613e-06
1.15509e-05
1.57935e-06
1.17426e-05
1.58402e-06
1.19223e-05
1.56386e-06
1.20887e-05
1.52278e-06
1.22414e-05
1.46462e-06
1.23804e-05
1.39301e-06
1.25062e-05
1.31122e-06
1.26196e-05
1.22216e-06
1.27216e-05
1.12828e-06
1.28132e-05
1.03167e-06
1.28955e-05
9.3398e-07
1.29696e-05
8.36535e-07
1.30365e-05
7.40331e-07
1.30971e-05
6.46088e-07
1.31524e-05
5.54292e-07
1.3203e-05
4.65223e-07
1.32498e-05
3.78994e-07
1.32933e-05
2.9558e-07
1.33341e-05
2.14838e-07
1.33727e-05
1.36534e-07
1.34095e-05
6.03538e-08
1.34448e-05
-1.40772e-08
1.3479e-05
-8.71869e-08
1.35122e-05
-1.59445e-07
1.35446e-05
-2.31356e-07
1.35764e-05
-3.03452e-07
1.36075e-05
-3.76287e-07
1.36378e-05
-4.5043e-07
1.36674e-05
-5.26454e-07
1.36958e-05
-6.04926e-07
1.37229e-05
-6.86398e-07
1.37481e-05
-7.7138e-07
1.37709e-05
-8.60323e-07
1.37907e-05
-9.53592e-07
1.38067e-05
-1.05143e-06
1.3818e-05
-1.15393e-06
1.38239e-05
-1.26099e-06
1.38233e-05
-1.37231e-06
1.38156e-05
-1.48734e-06
1.38e-05
-1.60531e-06
-1.72525e-06
1.3776e-05
1.00219e-05
1.10545e-07
1.00864e-05
3.31232e-07
1.01898e-05
5.43126e-07
1.03269e-05
7.39047e-07
1.04914e-05
9.13401e-07
1.06767e-05
1.0621e-06
1.08759e-05
1.18263e-06
1.1083e-05
1.27406e-06
1.12924e-05
1.33677e-06
1.14995e-05
1.37225e-06
1.17007e-05
1.3828e-06
1.18933e-05
1.3712e-06
1.20756e-05
1.34053e-06
1.22463e-05
1.29391e-06
1.24049e-05
1.23438e-06
1.25514e-05
1.16476e-06
1.26859e-05
1.08759e-06
1.28091e-05
1.0051e-06
1.29216e-05
9.19188e-07
1.30241e-05
8.31425e-07
1.31176e-05
7.43078e-07
1.32028e-05
6.55136e-07
1.32805e-05
5.68336e-07
1.33516e-05
4.83194e-07
1.34168e-05
4.00041e-07
1.34768e-05
3.19042e-07
1.35321e-05
2.40229e-07
1.35834e-05
1.6352e-07
1.36312e-05
8.87405e-08
1.3676e-05
1.56374e-08
1.3718e-05
-5.61046e-08
1.37577e-05
-1.26853e-07
1.37952e-05
-1.97014e-07
1.38309e-05
-2.67031e-07
1.38648e-05
-3.37369e-07
1.3897e-05
-4.08511e-07
1.39276e-05
-4.80949e-07
1.39563e-05
-5.55176e-07
1.3983e-05
-6.31675e-07
1.40075e-05
-7.10902e-07
1.40294e-05
-7.93274e-07
1.40483e-05
-8.79148e-07
1.40635e-05
-9.68798e-07
1.40744e-05
-1.06239e-06
1.40804e-05
-1.15996e-06
1.40808e-05
-1.26138e-06
1.40749e-05
-1.36636e-06
1.4062e-05
-1.4744e-06
1.40415e-05
-1.58485e-06
-1.69687e-06
1.40131e-05
1.00199e-05
9.06408e-08
1.00788e-05
2.7235e-07
1.0174e-05
4.47866e-07
1.03017e-05
6.1143e-07
1.04566e-05
7.58421e-07
1.06334e-05
8.85306e-07
1.08263e-05
9.89739e-07
1.10298e-05
1.07057e-06
1.12388e-05
1.12775e-06
1.1449e-05
1.16212e-06
1.16565e-05
1.17525e-06
1.18585e-05
1.16919e-06
1.20528e-05
1.1463e-06
1.22376e-05
1.10906e-06
1.24121e-05
1.05994e-06
1.25755e-05
1.0013e-06
1.27278e-05
9.35302e-07
1.2869e-05
8.63885e-07
1.29995e-05
7.88726e-07
1.31197e-05
7.11241e-07
1.32302e-05
6.32594e-07
1.33316e-05
5.53709e-07
1.34246e-05
4.75293e-07
1.351e-05
3.97857e-07
1.35883e-05
3.21741e-07
1.36602e-05
2.47137e-07
1.37263e-05
1.74113e-07
1.37872e-05
1.02628e-07
1.38434e-05
3.2555e-08
1.38953e-05
-3.63094e-08
1.39434e-05
-1.04227e-07
1.39881e-05
-1.71508e-07
1.40296e-05
-2.38502e-07
1.40681e-05
-3.05589e-07
1.41039e-05
-3.7317e-07
1.41371e-05
-4.41659e-07
1.41676e-05
-5.11475e-07
1.41955e-05
-5.83036e-07
1.42205e-05
-6.56742e-07
1.42426e-05
-7.32967e-07
1.42614e-05
-8.12046e-07
1.42765e-05
-8.94254e-07
1.42875e-05
-9.79791e-07
1.42939e-05
-1.06876e-06
1.4295e-05
-1.16115e-06
1.42905e-05
-1.25683e-06
1.42796e-05
-1.3555e-06
1.42619e-05
-1.45673e-06
1.4237e-05
-1.55993e-06
-1.66441e-06
1.42046e-05
1.00183e-05
7.23686e-08
1.00727e-05
2.17964e-07
1.01613e-05
3.59267e-07
1.02809e-05
4.9174e-07
1.04277e-05
6.11663e-07
1.05969e-05
7.16092e-07
1.07837e-05
8.0296e-07
1.09832e-05
8.7111e-07
1.11907e-05
9.20237e-07
1.1402e-05
9.50775e-07
1.16135e-05
9.63753e-07
1.1822e-05
9.60644e-07
1.20251e-05
9.43208e-07
1.22208e-05
9.13362e-07
1.24077e-05
8.73058e-07
1.25848e-05
8.24197e-07
1.27516e-05
7.6856e-07
1.29077e-05
7.07762e-07
1.30532e-05
6.43226e-07
1.31883e-05
5.7617e-07
1.33132e-05
5.07609e-07
1.34286e-05
4.3836e-07
1.35348e-05
3.6906e-07
1.36325e-05
3.00176e-07
1.37222e-05
2.32029e-07
1.38045e-05
1.6481e-07
1.38801e-05
9.85994e-08
1.39493e-05
3.33801e-08
1.40128e-05
-3.09433e-08
1.4071e-05
-9.45333e-08
1.41244e-05
-1.57607e-07
1.41733e-05
-2.20424e-07
1.42181e-05
-2.83282e-07
1.4259e-05
-3.465e-07
1.42963e-05
-4.10419e-07
1.433e-05
-4.75387e-07
1.43603e-05
-5.41755e-07
1.43871e-05
-6.09869e-07
1.44104e-05
-6.80054e-07
1.44301e-05
-7.52612e-07
1.44458e-05
-8.27802e-07
1.44574e-05
-9.05829e-07
1.44644e-05
-9.86831e-07
1.44665e-05
-1.07086e-06
1.44632e-05
-1.15787e-06
1.44541e-05
-1.24772e-06
1.44388e-05
-1.34011e-06
1.44167e-05
-1.43467e-06
1.43876e-05
-1.53088e-06
-1.62812e-06
1.43514e-05
1.0017e-05
5.53826e-08
1.00678e-05
1.67151e-07
1.0151e-05
2.76021e-07
1.02643e-05
3.78523e-07
1.04042e-05
4.71763e-07
1.05669e-05
5.53393e-07
1.07481e-05
6.217e-07
1.09436e-05
6.75641e-07
1.1149e-05
7.14814e-07
1.13604e-05
7.39394e-07
1.15741e-05
7.5003e-07
1.1787e-05
7.47741e-07
1.19964e-05
7.33798e-07
1.22002e-05
7.09626e-07
1.23965e-05
6.76706e-07
1.25842e-05
6.36507e-07
1.27623e-05
5.90425e-07
1.29304e-05
5.39744e-07
1.3088e-05
4.85605e-07
1.32352e-05
4.28999e-07
1.3372e-05
3.70758e-07
1.34988e-05
3.11558e-07
1.36159e-05
2.5193e-07
1.37238e-05
1.9227e-07
1.3823e-05
1.3285e-07
1.3914e-05
7.38362e-08
1.39973e-05
1.53002e-08
1.40734e-05
-4.2767e-08
1.41429e-05
-1.00443e-07
1.42063e-05
-1.57861e-07
1.42639e-05
-2.15201e-07
1.43161e-05
-2.72682e-07
1.43634e-05
-3.30551e-07
1.4406e-05
-3.89074e-07
1.44441e-05
-4.48535e-07
1.44779e-05
-5.0922e-07
1.45076e-05
-5.71417e-07
1.45331e-05
-6.35403e-07
1.45545e-05
-7.01439e-07
1.45716e-05
-7.69756e-07
1.45844e-05
-8.40549e-07
1.45925e-05
-9.13962e-07
1.45958e-05
-9.90081e-07
1.45938e-05
-1.06891e-06
1.45863e-05
-1.15039e-06
1.4573e-05
-1.23434e-06
1.45534e-05
-1.32051e-06
1.45272e-05
-1.40854e-06
1.44943e-05
-1.49796e-06
-1.58824e-06
1.44544e-05
1.0016e-05
3.93827e-08
1.00641e-05
1.19097e-07
1.01431e-05
1.96946e-07
1.02512e-05
2.7041e-07
1.03856e-05
3.37361e-07
1.0543e-05
3.96042e-07
1.07196e-05
4.45134e-07
1.09114e-05
4.83786e-07
1.11146e-05
5.1161e-07
1.13254e-05
5.28636e-07
1.15402e-05
5.35247e-07
1.17558e-05
5.3211e-07
1.19695e-05
5.20093e-07
1.21789e-05
5.00193e-07
1.23822e-05
4.73467e-07
1.25777e-05
4.40975e-07
1.27644e-05
4.03737e-07
1.29414e-05
3.62699e-07
1.31083e-05
3.18711e-07
1.32648e-05
2.72512e-07
1.34108e-05
2.24728e-07
1.35465e-05
1.75868e-07
1.36721e-05
1.26332e-07
1.3788e-05
7.64174e-08
1.38945e-05
2.6327e-08
1.39922e-05
-2.38194e-08
1.40814e-05
-7.39757e-08
1.41628e-05
-1.24159e-07
1.42368e-05
-1.7444e-07
1.43039e-05
-2.24934e-07
1.43645e-05
-2.75793e-07
1.4419e-05
-3.272e-07
1.44678e-05
-3.79357e-07
1.45112e-05
-4.32485e-07
1.45495e-05
-4.86811e-07
1.45829e-05
-5.42567e-07
1.46114e-05
-5.99981e-07
1.46353e-05
-6.59268e-07
1.46545e-05
-7.20626e-07
1.46689e-05
-7.84228e-07
1.46786e-05
-8.50208e-07
1.46833e-05
-9.18658e-07
1.46828e-05
-9.89617e-07
1.4677e-05
-1.06306e-06
1.46655e-05
-1.13888e-06
1.4648e-05
-1.21692e-06
1.46244e-05
-1.29692e-06
1.45944e-05
-1.37854e-06
1.45579e-05
-1.46137e-06
-1.54493e-06
1.45146e-05
1.00153e-05
2.41023e-08
1.00613e-05
7.30667e-08
1.01373e-05
1.20952e-07
1.02416e-05
1.66104e-07
1.03719e-05
2.07116e-07
1.05251e-05
2.4281e-07
1.06979e-05
2.72282e-07
1.08868e-05
2.94928e-07
1.1088e-05
3.1044e-07
1.12978e-05
3.18785e-07
1.15129e-05
3.20162e-07
1.17301e-05
3.14962e-07
1.19464e-05
3.03713e-07
1.21596e-05
2.87037e-07
1.23675e-05
2.65599e-07
1.25684e-05
2.40077e-07
1.2761e-05
2.11124e-07
1.29443e-05
1.7935e-07
1.31177e-05
1.45302e-07
1.32808e-05
1.09459e-07
1.34333e-05
7.222e-08
1.35752e-05
3.39105e-08
1.37068e-05
-5.21958e-09
1.38282e-05
-4.49904e-08
1.39398e-05
-8.52861e-08
1.4042e-05
-1.26049e-07
1.41353e-05
-1.67271e-07
1.42202e-05
-2.0899e-07
1.4297e-05
-2.51281e-07
1.43663e-05
-2.94249e-07
1.44286e-05
-3.38026e-07
1.44841e-05
-3.82763e-07
1.45334e-05
-4.28625e-07
1.45767e-05
-4.75789e-07
1.46143e-05
-5.24434e-07
1.46465e-05
-5.74739e-07
1.46734e-05
-6.26875e-07
1.46951e-05
-6.81004e-07
1.47118e-05
-7.37266e-07
1.47233e-05
-7.95778e-07
1.47297e-05
-8.56623e-07
1.47309e-05
-9.19844e-07
1.47267e-05
-9.85439e-07
1.4717e-05
-1.05335e-06
1.47016e-05
-1.12346e-06
1.46803e-05
-1.19559e-06
1.46528e-05
-1.26949e-06
1.46191e-05
-1.34484e-06
1.45791e-05
-1.42128e-06
-1.49836e-06
1.45325e-05
1.00148e-05
9.29768e-09
1.00595e-05
2.83803e-08
1.01334e-05
4.70164e-08
1.02352e-05
6.43651e-08
1.03626e-05
7.97067e-08
1.0513e-05
9.24328e-08
1.06832e-05
1.02068e-07
1.08698e-05
1.08283e-07
1.10694e-05
1.10896e-07
1.12783e-05
1.09859e-07
1.14932e-05
1.05238e-07
1.1711e-05
9.71989e-08
1.19287e-05
8.59733e-08
1.21439e-05
7.18407e-08
1.23544e-05
5.51046e-08
1.25584e-05
3.60729e-08
1.27545e-05
1.50428e-08
1.29415e-05
-7.71124e-09
1.31188e-05
-3.19462e-08
1.32857e-05
-5.74557e-08
1.3442e-05
-8.40726e-08
1.35876e-05
-1.1167e-07
1.37225e-05
-1.4016e-07
1.3847e-05
-1.69492e-07
1.39614e-05
-1.9965e-07
1.4066e-05
-2.30646e-07
1.41612e-05
-2.62524e-07
1.42476e-05
-2.95349e-07
1.43255e-05
-3.29206e-07
1.43955e-05
-3.64198e-07
1.44579e-05
-4.00441e-07
1.45132e-05
-4.3806e-07
1.45617e-05
-4.77188e-07
1.46039e-05
-5.1796e-07
1.464e-05
-5.6051e-07
1.46702e-05
-6.0497e-07
1.46948e-05
-6.5146e-07
1.47139e-05
-7.00088e-07
1.47276e-05
-7.50945e-07
1.47359e-05
-8.04095e-07
1.47388e-05
-8.59576e-07
1.47364e-05
-9.17388e-07
1.47284e-05
-9.77491e-07
1.47149e-05
-1.0398e-06
1.46956e-05
-1.10418e-06
1.46705e-05
-1.17044e-06
1.46393e-05
-1.23834e-06
1.4602e-05
-1.30758e-06
1.45586e-05
-1.37781e-06
-1.44865e-06
1.45089e-05
1.00146e-05
-5.26068e-09
1.00585e-05
-1.56062e-08