/*--------------------------------*- C++ -*----------------------------------*\
| =========                 |                                                 |
| \\      /  F ield         | OpenFOAM: The Open Source CFD Toolbox           |
|  \\    /   O peration     | Version:  2306                                  |
|   \\  /    A nd           | Website:  www.openfoam.com                      |
|    \\/     M anipulation  |                                                 |
\*---------------------------------------------------------------------------*/
FoamFile
{
    version     2.0;
    format      ascii;
    arch        "LSB;label=32;scalar=64";
    class       volScalarField;
    location    "3.57";
    object      p;
}
// * * * * * * * * * * * * * * * * * * * * * * * * * * * * * * * * * * * * * //

dimensions      [0 2 -2 0 0 0 0];

internalField   nonuniform List<scalar> 
1900
(
0.0578546
0.0336286
0.0132317
-0.00211659
-0.0131467
-0.0237183
-0.034181
-0.0463762
-0.0589703
-0.0730786
0.0285941
0.0203943
0.00907398
-0.0024853
-0.0135197
-0.0237206
-0.034172
-0.0447078
-0.0562318
-0.0673095
0.0195058
0.0150139
0.00749538
-0.00187722
-0.0119668
-0.0219528
-0.0317398
-0.0413008
-0.0507374
-0.0598366
0.0138094
0.0107354
0.005084
-0.00256675
-0.0114216
-0.0206657
-0.0298616
-0.038781
-0.0473804
-0.0555439
0.011591
0.0090555
0.00431658
-0.00233174
-0.0103107
-0.0189143
-0.027589
-0.0360114
-0.0440303
-0.0515556
0.012231
0.0097507
0.00514092
-0.00132264
-0.00905896
-0.0173594
-0.0256647
-0.0336569
-0.0412111
-0.0482983
0.015692
0.012747
0.00746789
0.000388008
-0.00766753
-0.0159479
-0.023987
-0.0316069
-0.0387992
-0.045598
0.0223956
0.0181016
0.0112069
0.00274276
-0.00607038
-0.0144855
-0.0223065
-0.0296266
-0.0365946
-0.0432721
0.0325404
0.0244431
0.014011
0.00355617
-0.00574205
-0.013842
-0.0211957
-0.0282252
-0.0350934
-0.0417595
0.0613924
0.0387222
0.0190199
0.0049642
-0.00468333
-0.0123654
-0.0195776
-0.0267744
-0.0339053
-0.0407641
-0.0963545
-0.0963882
-0.0964326
-0.0964859
-0.0965455
-0.0966109
-0.0966816
-0.0967567
-0.0968349
-0.0969145
-0.0969942
-0.0970723
-0.0971473
-0.0972176
-0.0972818
-0.0973385
-0.0973863
-0.0974242
-0.0974511
-0.0974662
-0.0974687
-0.0974581
-0.097434
-0.097396
-0.0973441
-0.0972783
-0.0971986
-0.0971054
-0.0969991
-0.0968807
-0.0967513
-0.0966127
-0.0964668
-0.096316
-0.0961616
-0.0960033
-0.0958372
-0.0956538
-0.0954361
-0.0951581
-0.0947855
-0.0942772
-0.093588
-0.0926695
-0.0914694
-0.0899276
-0.0879716
-0.0855162
-0.0824665
-0.0787224
-0.0741865
-0.0687934
-0.0625119
-0.0553519
-0.0473848
-0.0387004
-0.0294295
-0.0197434
-0.00983835
7.91116e-05
0.00979892
0.0191164
0.0278451
0.0358207
0.0429137
0.0490308
0.0541113
0.0581322
0.0610985
0.0630465
0.0640312
0.0641303
0.0634258
0.0620155
0.0599919
0.0574545
0.0544878
0.0511802
0.0475991
0.0438162
0.0398773
0.0358369
0.0317186
0.0275623
0.02337
0.0191721
0.014947
0.0107262
0.00645778
0.00219718
-0.0963502
-0.0963816
-0.0964084
-0.0964494
-0.0965001
-0.0965591
-0.0966248
-0.0966955
-0.0967698
-0.0968461
-0.0969228
-0.0969985
-0.0970715
-0.0971401
-0.0972029
-0.0972584
-0.0973053
-0.0973423
-0.0973683
-0.0973825
-0.097384
-0.0973722
-0.0973465
-0.0973067
-0.0972525
-0.0971837
-0.0971003
-0.0970025
-0.0968906
-0.0967648
-0.0966258
-0.0964743
-0.0963111
-0.0961372
-0.0959533
-0.0957586
-0.0955502
-0.0953215
-0.0950608
-0.0947503
-0.0943658
-0.0938769
-0.0932464
-0.0924296
-0.0913718
-0.0900059
-0.0882476
-0.0859905
-0.0831144
-0.0795053
-0.0750772
-0.0697821
-0.0636114
-0.056562
-0.0486596
-0.040006
-0.0307399
-0.0210379
-0.0111015
-0.00114395
0.0086235
0.0179861
0.0267543
0.0347791
0.0418966
0.0480383
0.0531407
0.0571823
0.0601652
0.062129
0.0631277
0.0632442
0.062562
0.0611807
0.0591883
0.0566877
0.0537589
0.0504952
0.0469576
0.0432244
0.0393328
0.0353462
0.031277
0.0271774
0.0230344
0.0188949
0.0147202
0.0105589
0.00634683
0.00215551
-0.0962326
-0.0963139
-0.096359
-0.0964121
-0.0964678
-0.0965288
-0.0965961
-0.0966686
-0.096745
-0.0968238
-0.0969033
-0.0969819
-0.0970579
-0.0971296
-0.0971954
-0.0972538
-0.0973034
-0.0973427
-0.0973708
-0.0973864
-0.0973888
-0.0973774
-0.0973517
-0.0973113
-0.0972562
-0.0971863
-0.0971018
-0.0970029
-0.09689
-0.0967633
-0.0966232
-0.0964696
-0.0963027
-0.0961227
-0.0959293
-0.0957214
-0.095497
-0.0952525
-0.0949829
-0.0946803
-0.0943318
-0.0939171
-0.0934068
-0.092756
-0.0918994
-0.0907527
-0.0892138
-0.0871595
-0.0844621
-0.0810252
-0.0767432
-0.0715312
-0.0653628
-0.0582741
-0.0503289
-0.0416375
-0.032337
-0.0225928
-0.012636
-0.00267919
0.00707265
0.0164185
0.0251681
0.0331625
0.0402569
0.0463689
0.0514391
0.0554509
0.0584071
0.0603521
0.06134
0.0614576
0.0607856
0.0594284
0.0574713
0.0550205
0.0521521
0.0489625
0.0455081
0.0418703
0.0380814
0.0342082
0.0302581
0.0262862
0.0222763
0.0182757
0.0142455
0.0102307
0.00617265
0.0021241
-0.0963163
-0.0963894
-0.096393
-0.0964181
-0.096463
-0.0965244
-0.0965969
-0.0966767
-0.0967611
-0.0968482
-0.0969359
-0.0970222
-0.0971052
-0.0971833
-0.0972547
-0.0973178
-0.0973712
-0.0974134
-0.0974432
-0.0974598
-0.0974623
-0.0974501
-0.097423
-0.0973806
-0.0973227
-0.0972496
-0.0971614
-0.0970584
-0.096941
-0.0968093
-0.0966634
-0.0965028
-0.0963265
-0.0961339
-0.0959257
-0.0957027
-0.0954662
-0.0952176
-0.0949568
-0.0946802
-0.0943804
-0.0940435
-0.0936421
-0.0931267
-0.0924192
-0.0914188
-0.0900247
-0.088108
-0.0855233
-0.082151
-0.0779143
-0.0727412
-0.0666173
-0.0595712
-0.0516703
-0.0430319
-0.0338016
-0.0241568
-0.0143128
-0.00448696
0.00510991
0.0142819
0.0228423
0.0306405
0.0375452
0.0434736
0.0483721
0.0522309
0.0550582
0.0569033
0.057823
0.057906
0.0572333
0.0559099
0.0540196
0.0516669
0.0489248
0.0458869
0.0426068
0.0391623
0.0355844
0.0319351
0.028223
0.0244973
0.0207457
0.0170083
0.013253
0.00951446
0.0057424
0.00197139
-0.0959897
-0.0961947
-0.0962846
-0.0963879
-0.0964857
-0.0965781
-0.0966697
-0.0967639
-0.0968604
-0.0969576
-0.0970538
-0.0971472
-0.0972361
-0.0973186
-0.0973931
-0.0974582
-0.0975123
-0.0975541
-0.0975823
-0.097596
-0.0975945
-0.0975776
-0.097545
-0.0974968
-0.097433
-0.0973537
-0.0972597
-0.0971514
-0.0970292
-0.0968931
-0.096743
-0.096578
-0.0963965
-0.0961969
-0.0959808
-0.0957508
-0.09551
-0.0952625
-0.0950111
-0.0947545
-0.0944841
-0.0941881
-0.0938415
-0.0933886
-0.0927385
-0.0917877
-0.0904117
-0.0885002
-0.0859194
-0.0825573
-0.0783288
-0.0731817
-0.0671039
-0.0601312
-0.0523408
-0.0438528
-0.0348206
-0.0254249
-0.0158701
-0.00636884
0.00287095
0.0116603
0.0198256
0.0272268
0.0337483
0.0393165
0.0438874
0.0474595
0.0500504
0.051714
0.0525115
0.0525315
0.0518555
0.0505846
0.0488013
0.046603
0.0440602
0.0412581
0.0382485
0.0351002
0.0318445
0.028534
0.0251803
0.0218228
0.0184551
0.0151066
0.0117553
0.00842367
0.00507659
0.00173675
-0.0968234
-0.0968449
-0.0967424
-0.0966961
-0.0967055
-0.0967623
-0.0968491
-0.096949
-0.0970511
-0.0971518
-0.0972494
-0.0973422
-0.0974285
-0.0975071
-0.0975764
-0.0976352
-0.0976824
-0.0977165
-0.0977365
-0.0977416
-0.0977313
-0.0977056
-0.0976646
-0.0976086
-0.0975377
-0.0974518
-0.0973519
-0.097239
-0.0971132
-0.0969744
-0.0968221
-0.0966553
-0.0964718
-0.0962682
-0.0960512
-0.0958229
-0.0955853
-0.0953421
-0.0950959
-0.0948454
-0.094579
-0.0942721
-0.0938932
-0.0933898
-0.0926771
-0.091652
-0.0901981
-0.0881995
-0.0855377
-0.0821103
-0.0778432
-0.0726987
-0.0666753
-0.0598166
-0.0522082
-0.0439761
-0.0352771
-0.0262923
-0.0172174
-0.00825273
0.000408273
0.00859062
0.0161401
0.0229328
0.0288731
0.0339027
0.0379932
0.0411526
0.0434104
0.0448244
0.045461
0.0454055
0.044739
0.0435544
0.0419307
0.0399542
0.0376917
0.0352156
0.0325754
0.0298273
0.0270023
0.0241414
0.0212586
0.0183821
0.0155116
0.0126655
0.00983137
0.00702158
0.00421561
0.00142591
-0.0954911
-0.0961402
-0.0963422
-0.0965983
-0.0968133
-0.096976
-0.0970976
-0.0971977
-0.0972894
-0.0973765
-0.0974593
-0.0975368
-0.0976078
-0.0976712
-0.0977258
-0.0977707
-0.0978049
-0.0978272
-0.0978362
-0.0978309
-0.0978112
-0.097777
-0.0977283
-0.0976652
-0.0975881
-0.0974959
-0.0973917
-0.0972764
-0.097149
-0.0970092
-0.0968566
-0.09669
-0.0965079
-0.0963059
-0.0960805
-0.0958386
-0.0955845
-0.0953187
-0.0950397
-0.0947416
-0.0944108
-0.0940223
-0.0935374
-0.0928989
-0.0920255
-0.0908202
-0.0891748
-0.0869828
-0.0841445
-0.0805775
-0.0762246
-0.0710631
-0.0651064
-0.0584099
-0.0510675
-0.0432098
-0.0349932
-0.026594
-0.018196
-0.00998235
-0.0021223
0.0052337
0.0119585
0.0179518
0.0231429
0.0274932
0.030993
0.0336611
0.0355373
0.0366807
0.0371594
0.0370516
0.0364345
0.0353887
0.033987
0.0323015
0.0303926
0.0283186
0.0261244
0.0238533
0.0215346
0.0191975
0.0168576
0.0145326
0.0122271
0.00994999
0.0076974
0.00547308
0.00326856
0.00108883
-0.10021
-0.0988297
-0.0982008
-0.097767
-0.09754
-0.0974501
-0.0974373
-0.0974605
-0.0974978
-0.0975417
-0.0975893
-0.0976373
-0.097684
-0.0977275
-0.0977662
-0.097798
-0.0978219
-0.0978344
-0.0978342
-0.0978215
-0.0977963
-0.0977585
-0.0977075
-0.0976429
-0.0975649
-0.0974712
-0.097359
-0.0972331
-0.0970944
-0.0969407
-0.0967697
-0.0965791
-0.0963664
-0.0961288
-0.0958649
-0.0955755
-0.0952609
-0.0949188
-0.0945438
-0.0941251
-0.0936446
-0.0930737
-0.09237
-0.0914761
-0.0903188
-0.0888125
-0.0868651
-0.0843876
-0.0813022
-0.0775512
-0.0730999
-0.0679444
-0.0621144
-0.055676
-0.0487275
-0.0413977
-0.033836
-0.0262061
-0.0186722
-0.0113939
-0.00451297
0.0018523
0.00760834
0.0126838
0.0170362
0.0206472
0.0235245
0.0256946
0.0272024
0.028103
0.0284609
0.0283432
0.0278196
0.0269568
0.0258191
0.024464
0.0229442
0.021304
0.0195829
0.0178123
0.0160191
0.0142225
0.0124387
0.0106768
0.00894504
0.00724495
0.00557954
0.00394524
0.00234186
0.000764435
-0.0943592
-0.0954535
-0.0962929
-0.0969054
-0.0972217
-0.0973391
-0.097372
-0.0973833
-0.0973974
-0.0974259
-0.0974636
-0.0975035
-0.0975431
-0.0975812
-0.0976163
-0.0976465
-0.0976715
-0.0976905
-0.0976967
-0.0976864
-0.0976592
-0.097616
-0.0975579
-0.097483
-0.0973889
-0.0972738
-0.0971364
-0.0969773
-0.096796
-0.0965904
-0.0963573
-0.0960936
-0.0957957
-0.0954601
-0.0950833
-0.0946622
-0.0941936
-0.0936722
-0.0930892
-0.0924303
-0.0916742
-0.0907922
-0.0897447
-0.0884812
-0.0869405
-0.0850547
-0.0827535
-0.0799708
-0.0766507
-0.0727544
-0.068269
-0.063211
-0.0576259
-0.0515883
-0.045197
-0.0385724
-0.0318475
-0.025162
-0.0186498
-0.0124368
-0.0066303
-0.00132104
0.00342808
0.00757409
0.0110989
0.0140004
0.0162969
0.0180173
0.0192054
0.0199084
0.0201831
0.0200844
0.0196732
0.0190033
0.0181312
0.0171012
0.0159587
0.0147356
0.0134666
0.0121715
0.0108759
0.00958896
0.00832874
0.00709537
0.00590201
0.00474193
0.00362585
0.00254191
0.00149995
0.000483196
-0.117071
-0.102131
-0.100202
-0.0987244
-0.0978085
-0.097379
-0.0972034
-0.0971391
-0.097116
-0.0971158
-0.0971499
-0.0972083
-0.0972716
-0.0973301
-0.0973817
-0.0974252
-0.0974585
-0.097478
-0.097478
-0.0974545
-0.0974069
-0.0973354
-0.0972392
-0.0971156
-0.0969614
-0.096774
-0.096551
-0.0962905
-0.0959904
-0.0956483
-0.0952617
-0.0948272
-0.0943411
-0.0937992
-0.0931976
-0.0925319
-0.0917972
-0.0909869
-0.0900913
-0.089096
-0.0879803
-0.086715
-0.0852641
-0.0835866
-0.0816372
-0.0793681
-0.076733
-0.0736913
-0.0702132
-0.0662853
-0.0619143
-0.0571291
-0.0519799
-0.0465369
-0.0408869
-0.0351313
-0.0293782
-0.0237379
-0.018313
-0.0131962
-0.00846395
-0.00417964
-0.000382594
0.00290519
0.00568045
0.00794861
0.0097317
0.0110573
0.0119663
0.0124983
0.0127026
0.0126237
0.0123147
0.0118191
0.0111864
0.0104502
0.00965001
0.00880652
0.00794964
0.00708853
0.00624653
0.00542315
0.00463819
0.00388301
0.00317641
0.00250216
0.00188011
0.00128708
0.00074595
0.000223918
-0.0845775
-0.0910545
-0.0935638
-0.0944014
-0.0948416
-0.0952358
-0.0955997
-0.0959041
-0.0961667
-0.0963949
-0.0965898
-0.0967539
-0.0968904
-0.0970025
-0.0970921
-0.0971588
-0.0971996
-0.0972101
-0.0971852
-0.097121
-0.0970147
-0.0968649
-0.09667
-0.0964281
-0.0961369
-0.0957944
-0.0953988
-0.094948
-0.0944404
-0.0938732
-0.0932424
-0.0925442
-0.0917755
-0.0909332
-0.090014
-0.089014
-0.0879285
-0.0867511
-0.0854732
-0.0840824
-0.0825624
-0.0808923
-0.0790473
-0.0770001
-0.0747218
-0.0721839
-0.0693606
-0.0662321
-0.0627876
-0.0590283
-0.054969
-0.0506401
-0.0460857
-0.0413627
-0.0365399
-0.0316969
-0.0269179
-0.0222879
-0.0178863
-0.0137828
-0.0100311
-0.00666904
-0.00371718
-0.0011848
0.000931791
0.00264203
0.00396857
0.00493881
0.00559133
0.00596228
0.00609574
0.00602921
0.00580826
0.00546753
0.00504883
0.0045775
0.00408677
0.00358875
0.00310739
0.00264221
0.00221206
0.00180713
0.00144717
0.00111577
0.000836788
0.00058467
0.000388558
0.000211556
9.17882e-05
-2.14252e-05
-0.0785698
-0.0863536
-0.0903403
-0.0917669
-0.0921992
-0.0925307
-0.0930204
-0.0936256
-0.0942324
-0.0947658
-0.0952045
-0.0955576
-0.0958435
-0.0960763
-0.0962628
-0.0964025
-0.0964912
-0.0965225
-0.0964904
-0.0963898
-0.0962172
-0.0959706
-0.0956488
-0.0952516
-0.0947787
-0.0942299
-0.0936053
-0.0929046
-0.0921275
-0.0912732
-0.0903404
-0.089328
-0.0882346
-0.087059
-0.0857996
-0.0844543
-0.08302
-0.0814925
-0.0798661
-0.0781331
-0.0762838
-0.0743058
-0.0721849
-0.0699049
-0.0674485
-0.0647998
-0.0619456
-0.0588779
-0.0555952
-0.0521046
-0.0484233
-0.0445797
-0.0406139
-0.0365765
-0.0325241
-0.0285168
-0.0246166
-0.0208857
-0.0173831
-0.0141587
-0.0112495
-0.00868006
-0.00646198
-0.00459483
-0.00306436
-0.00185191
-0.000932797
-0.00027958
0.000143265
0.000372027
0.000448934
0.000409615
0.000290895
0.000117515
-8.18309e-05
-0.000290452
-0.000484317
-0.00065704
-0.000792882
-0.000898433
-0.000962677
-0.00100167
-0.00100037
-0.000978732
-0.000912441
-0.000831154
-0.000699936
-0.000564131
-0.000371926
-0.000190672
-0.068321
-0.0755261
-0.0808701
-0.0843479
-0.0864752
-0.0879139
-0.0891127
-0.0902496
-0.0913366
-0.0923281
-0.0931867
-0.0939031
-0.0944878
-0.0949576
-0.0953255
-0.0955976
-0.0957739
-0.0958512
-0.0958253
-0.0956926
-0.095451
-0.0951001
-0.0946409
-0.0940752
-0.0934058
-0.0926353
-0.0917667
-0.0908028
-0.0897462
-0.088599
-0.087363
-0.0860395
-0.0846294
-0.0831331
-0.0815509
-0.0798822
-0.0781262
-0.0762813
-0.0743452
-0.0723144
-0.0701851
-0.067952
-0.0656098
-0.0631522
-0.0605735
-0.0578681
-0.0550318
-0.0520631
-0.0489649
-0.0457456
-0.0424214
-0.0390174
-0.0355698
-0.032124
-0.0287314
-0.0254444
-0.0223117
-0.0193745
-0.016665
-0.0142075
-0.0120235
-0.010133
-0.00854843
-0.00726243
-0.00624328
-0.0054516
-0.00485416
-0.00442732
-0.00414668
-0.00398077
-0.00388845
-0.00383339
-0.00378898
-0.00374499
-0.0036936
-0.00363161
-0.00354885
-0.00344273
-0.00330494
-0.00314071
-0.00294445
-0.00272681
-0.00247915
-0.00221808
-0.00192763
-0.00163211
-0.00130171
-0.000975782
-0.000601408
-0.000250893
-0.0630529
-0.0696708
-0.0751374
-0.0793457
-0.0824191
-0.0846689
-0.0864372
-0.087963
-0.0893541
-0.0906282
-0.0917652
-0.0927448
-0.0935607
-0.0942184
-0.0947279
-0.0950968
-0.0953283
-0.095422
-0.0953756
-0.0951872
-0.0948558
-0.0943827
-0.0937706
-0.0930237
-0.0921473
-0.091147
-0.0900287
-0.0887982
-0.0874613
-0.0860231
-0.084488
-0.0828596
-0.0811407
-0.0793337
-0.0774402
-0.0754618
-0.0733999
-0.0712557
-0.0690305
-0.0667257
-0.0643424
-0.0618823
-0.0593473
-0.0567403
-0.0540642
-0.0513225
-0.0485186
-0.045657
-0.0427435
-0.0397861
-0.0367969
-0.0337949
-0.0308093
-0.0278817
-0.0250652
-0.0224149
-0.019975
-0.0177667
-0.0157857
-0.0140141
-0.012447
-0.0111053
-0.0100168
-0.0091784
-0.00854173
-0.00803351
-0.00760254
-0.00723813
-0.00694594
-0.00671865
-0.00652653
-0.00633412
-0.00611657
-0.00586644
-0.00558819
-0.00529424
-0.0049927
-0.00468862
-0.00437896
-0.00406321
-0.00373586
-0.00339928
-0.00304829
-0.0026894
-0.00231448
-0.0019347
-0.00153333
-0.00113105
-0.000692071
-0.000265606
-0.0585039
-0.0647686
-0.0702223
-0.0747679
-0.0784108
-0.0812843
-0.0835992
-0.0855562
-0.0872885
-0.0888547
-0.0902625
-0.0914985
-0.0925491
-0.0934091
-0.0940802
-0.0945669
-0.0948726
-0.0949983
-0.094944
-0.0947095
-0.0942964
-0.0937079
-0.0929494
-0.0920275
-0.0909501
-0.0897256
-0.0883631
-0.0868717
-0.0852606
-0.0835381
-0.0817114
-0.0797864
-0.0777683
-0.0756611
-0.0734684
-0.0711938
-0.0688412
-0.0664152
-0.0639207
-0.061364
-0.0587518
-0.0560918
-0.0533927
-0.0506643
-0.047918
-0.0451655
-0.0424192
-0.03969
-0.036987
-0.0343168
-0.0316856
-0.0291014
-0.0265785
-0.0241448
-0.0218522
-0.0197649
-0.0179358
-0.0163735
-0.0150269
-0.0138209
-0.0127191
-0.0117422
-0.010941
-0.0103368
-0.00988501
-0.00949224
-0.00908359
-0.00864764
-0.00821849
-0.00782588
-0.0074711
-0.0071387
-0.00681665
-0.00649101
-0.00615148
-0.00579762
-0.00543407
-0.00506597
-0.00469464
-0.00432123
-0.00394441
-0.00356495
-0.0031803
-0.002792
-0.00239617
-0.00199586
-0.00158299
-0.00116321
-0.000716131
-0.000265011
-0.0548986
-0.060957
-0.0663871
-0.0711107
-0.0751039
-0.0784203
-0.0811819
-0.0835346
-0.0855998
-0.0874496
-0.0891103
-0.0905794
-0.0918439
-0.0928921
-0.0937179
-0.0943197
-0.0946977
-0.0948526
-0.0947846
-0.0944957
-0.0939901
-0.0932748
-0.0923589
-0.0912528
-0.0899671
-0.0885135
-0.0869041
-0.085151
-0.0832666
-0.0812621
-0.0791479
-0.0769327
-0.0746242
-0.0722285
-0.0697516
-0.0671994
-0.0645784
-0.0618968
-0.059164
-0.0563916
-0.0535929
-0.0507818
-0.047973
-0.0451814
-0.0424233
-0.0397194
-0.0370908
-0.034554
-0.0321174
-0.029783
-0.0275488
-0.0254102
-0.023362
-0.0214053
-0.0195736
-0.0179293
-0.0165421
-0.0154291
-0.0145096
-0.013678
-0.0128759
-0.0121111
-0.0114071
-0.0107963
-0.0102956
-0.00986453
-0.00945314
-0.00904893
-0.00866142
-0.00827327
-0.0078733
-0.00746217
-0.00704233
-0.00662167
-0.00621006
-0.00581275
-0.00542723
-0.00505179
-0.00468232
-0.00431434
-0.00394379
-0.00356889
-0.00318793
-0.00280072
-0.00240584
-0.00200395
-0.0015914
-0.00116768
-0.000724303
-0.000268987
-0.052001
-0.0579522
-0.06337
-0.0681884
-0.0723869
-0.0759982
-0.0790988
-0.0817881
-0.0841597
-0.0862805
-0.0881836
-0.0898745
-0.0913429
-0.0925736
-0.0935534
-0.0942739
-0.0947299
-0.0949191
-0.094841
-0.0944978
-0.0938963
-0.0930485
-0.0919696
-0.090675
-0.0891799
-0.0874993
-0.0856486
-0.0836437
-0.0814999
-0.0792321
-0.0768538
-0.0743767
-0.0718111
-0.069166
-0.0664498
-0.0636709
-0.0608389
-0.0579653
-0.0550641
-0.0521524
-0.0492507
-0.046381
-0.0435645
-0.0408171
-0.0381521
-0.0355942
-0.0331685
-0.0308885
-0.0287527
-0.0267498
-0.0248713
-0.0231047
-0.0214452
-0.0199001
-0.0184646
-0.0171661
-0.0160387
-0.0150764
-0.0142517
-0.0135256
-0.0128751
-0.0123041
-0.0118255
-0.0113694
-0.0108545
-0.0102666
-0.00965922
-0.00909478
-0.00858887
-0.00814564
-0.00774745
-0.0073671
-0.00698818
-0.00660554
-0.00621928
-0.00583225
-0.00544979
-0.00507198
-0.00469686
-0.00432226
-0.00394613
-0.00356671
-0.00318217
-0.00279198
-0.00239533
-0.00199164
-0.00157857
-0.00115506
-0.000719511
-0.000264338
-0.0496191
-0.0555437
-0.060962
-0.0658296
-0.0701471
-0.0739529
-0.0773072
-0.0802778
-0.0829288
-0.0853107
-0.0874533
-0.0893644
-0.0910357
-0.0924498
-0.0935879
-0.0944345
-0.0949781
-0.0952121
-0.0951342
-0.094747
-0.0940585
-0.0930852
-0.091849
-0.0903726
-0.0886784
-0.0867883
-0.0847234
-0.0825043
-0.0801502
-0.0776788
-0.0751059
-0.0724451
-0.0697083
-0.0669062
-0.0640487
-0.0611458
-0.058209
-0.0552513
-0.0522893
-0.0493429
-0.0464369
-0.0435992
-0.0408585
-0.0382361
-0.0357473
-0.0334117
-0.0312395
-0.0292247
-0.0273482
-0.0255785
-0.0238881
-0.0222781
-0.0207835
-0.0194525
-0.0183313
-0.017426
-0.0166747
-0.0159132
-0.0150536
-0.0141062
-0.0131641
-0.0123503
-0.0116792
-0.011125
-0.0106257
-0.0101309
-0.00963275
-0.0091435
-0.00868055
-0.00824929
-0.00783735
-0.00743338
-0.00703178
-0.00663226
-0.00623709
-0.00584748
-0.00546266
-0.00508199
-0.00470387
-0.00432625
-0.00394717
-0.003565
-0.00317833
-0.00278621
-0.00238768
-0.00198158
-0.00156634
-0.00114287
-0.000712724
-0.000258041
-0.0480948
-0.0539836
-0.0593664
-0.0642345
-0.0686124
-0.072541
-0.0760709
-0.0792521
-0.082127
-0.0847303
-0.0870826
-0.089188
-0.0910369
-0.0926112
-0.0938888
-0.0948483
-0.0954725
-0.09575
-0.0956767
-0.0952563
-0.0945004
-0.0934257
-0.0920549
-0.0904176
-0.0885466
-0.0864748
-0.0842329
-0.0818486
-0.079346
-0.0767454
-0.0740637
-0.0713147
-0.06851
-0.0656593
-0.0627716
-0.0598559
-0.0569222
-0.0539827
-0.0510524
-0.0481508
-0.0453022
-0.0425366
-0.0398896
-0.0373992
-0.0351029
-0.0330186
-0.0311392
-0.0294301
-0.0278347
-0.0262923
-0.0247354
-0.0231425
-0.0215398
-0.0199993
-0.0186084
-0.0174315
-0.0164376
-0.0155651
-0.0147404
-0.0139417
-0.0131801
-0.0124815
-0.0118668
-0.011312
-0.0107763
-0.0102413
-0.00971111
-0.00920176
-0.00872309
-0.00827514
-0.00785121
-0.00744236
-0.00704164
-0.00664547
-0.0062528
-0.00586391
-0.00547885
-0.00509693
-0.00471683
-0.00433691
-0.00395553
-0.00357115
-0.00318244
-0.00278829
-0.00238763
-0.00197922
-0.00156215
-0.00113812
-0.000708829
-0.000255036
-0.0471847
-0.0530908
-0.0584735
-0.0633593
-0.0677881
-0.0718033
-0.0754494
-0.0787708
-0.0818056
-0.0845769
-0.0870933
-0.0893509
-0.0913362
-0.0930292
-0.094407
-0.0954477
-0.0961333
-0.0964521
-0.0964007
-0.0959848
-0.0952188
-0.0941253
-0.0927324
-0.0910723
-0.0891787
-0.0870853
-0.0848239
-0.0824234
-0.079909
-0.0773019
-0.0746194
-0.0718759
-0.0690828
-0.0662497
-0.0633852
-0.0604975
-0.0575954
-0.0546895
-0.0517925
-0.0489207
-0.0460946
-0.0433391
-0.0406828
-0.0381559
-0.0357842
-0.033583
-0.0315528
-0.0296786
-0.027938
-0.0262666
-0.0246288
-0.0230216
-0.0214701
-0.0200302
-0.0187554
-0.0176612
-0.0167135
-0.0158314
-0.0149638
-0.0141056
-0.0132883
-0.0125518
-0.011903
-0.0113189
-0.0107686
-0.0102349
-0.00971714
-0.00922151
-0.00875277
-0.00830878
-0.00788368
-0.00747095
-0.0070663
-0.00666771
-0.00627445
-0.00588604
-0.00550176
-0.0051205
-0.00474082
-0.00436109
-0.00397971
-0.00359521
-0.00320623
-0.0028116
-0.00241017
-0.00200078
-0.00158251
-0.0011556
-0.000719853
-0.000260161
)
;

boundaryField
{
    fixedWalls
    {
        type            zeroGradient;
    }
    inflowWall
    {
        type            zeroGradient;
    }
    outflowWall
    {
        type            fixedValue;
        value           uniform 0;
    }
    frontAndBack
    {
        type            empty;
    }
}


// ************************************************************************* //
