/*--------------------------------*- C++ -*----------------------------------*\
| =========                 |                                                 |
| \\      /  F ield         | OpenFOAM: The Open Source CFD Toolbox           |
|  \\    /   O peration     | Version:  2306                                  |
|   \\  /    A nd           | Website:  www.openfoam.com                      |
|    \\/     M anipulation  |                                                 |
\*---------------------------------------------------------------------------*/
FoamFile
{
    version     2.0;
    format      ascii;
    arch        "LSB;label=32;scalar=64";
    class       volVectorField;
    location    "3.49";
    object      U;
}
// * * * * * * * * * * * * * * * * * * * * * * * * * * * * * * * * * * * * * //

dimensions      [0 1 -1 0 0 0 0];

internalField   nonuniform List<vector> 
1900
(
(0.984289 0.00728258 0)
(0.961748 0.0216923 0)
(0.95236 0.0181607 0)
(0.918704 0.0253089 0)
(0.90348 0.0154145 0)
(0.863107 0.0257508 0)
(0.852395 0.0115538 0)
(0.812081 0.0267171 0)
(0.809912 0.00447882 0)
(0.770763 0.0259202 0)
(1.00257 0.0115568 0)
(1.00445 0.0258561 0)
(1.01945 0.0289504 0)
(1.02198 0.0304364 0)
(1.03491 0.027974 0)
(1.03401 0.0283763 0)
(1.04414 0.0257211 0)
(1.04289 0.0250006 0)
(1.05135 0.0205287 0)
(1.05246 0.0159976 0)
(1.00048 0.00388185 0)
(1.00419 0.0111461 0)
(1.01256 0.0139789 0)
(1.02114 0.0157599 0)
(1.03156 0.0146688 0)
(1.04056 0.0143615 0)
(1.05002 0.0122901 0)
(1.05844 0.0108141 0)
(1.06693 0.00714452 0)
(1.07479 0.00293063 0)
(1.00007 0.00207302 0)
(1.00313 0.00583126 0)
(1.00888 0.00803324 0)
(1.01649 0.00900175 0)
(1.02529 0.00850644 0)
(1.03433 0.00738725 0)
(1.04326 0.00558152 0)
(1.05183 0.0033878 0)
(1.06001 0.000521359 0)
(1.06769 -0.00304547 0)
(1.00003 0.000420542 0)
(1.00261 0.001159 0)
(1.00738 0.00141185 0)
(1.01402 0.00111754 0)
(1.02192 0.000203094 0)
(1.03036 -0.00118297 0)
(1.03879 -0.00300335 0)
(1.04692 -0.00524092 0)
(1.05458 -0.0079405 0)
(1.06172 -0.0111708 0)
(1.00003 -0.00106447 0)
(1.00255 -0.00303914 0)
(1.00719 -0.00477054 0)
(1.01365 -0.00622075 0)
(1.02132 -0.00753557 0)
(1.02947 -0.00891749 0)
(1.03757 -0.010553 0)
(1.0453 -0.0125546 0)
(1.05255 -0.0149633 0)
(1.05931 -0.0177497 0)
(1.00003 -0.00271383 0)
(1.00303 -0.00744228 0)
(1.00836 -0.0110764 0)
(1.01545 -0.0135225 0)
(1.02345 -0.0151589 0)
(1.03161 -0.0165357 0)
(1.03946 -0.018059 0)
(1.04685 -0.0199075 0)
(1.05375 -0.022075 0)
(1.06021 -0.0244722 0)
(1.00004 -0.00477172 0)
(1.00441 -0.0122409 0)
(1.01137 -0.0169303 0)
(1.01979 -0.019368 0)
(1.02837 -0.020703 0)
(1.03637 -0.0218848 0)
(1.04355 -0.0233622 0)
(1.05001 -0.0251631 0)
(1.05585 -0.0271468 0)
(1.06113 -0.0291808 0)
(1.00006 -0.0121202 0)
(1.00721 -0.0259564 0)
(1.01557 -0.0314372 0)
(1.02286 -0.03259 0)
(1.02791 -0.0326786 0)
(1.03069 -0.0330602 0)
(1.03168 -0.0338468 0)
(1.03135 -0.0347764 0)
(1.02991 -0.0356333 0)
(1.02736 -0.0363592 0)
(0.980777 -0.00916394 0)
(0.964583 -0.0188229 0)
(0.945451 -0.0220486 0)
(0.920776 -0.0221894 0)
(0.891975 -0.0217449 0)
(0.861647 -0.021586 0)
(0.831386 -0.0216208 0)
(0.801671 -0.0216145 0)
(0.77243 -0.0214429 0)
(0.743419 -0.0211221 0)
(0.000203327 -0.000103447 0)
(0.000328342 -1.44486e-05 0)
(5.31784e-05 3.21498e-05 0)
(-0.000432715 5.83909e-05 0)
(-0.0010712 7.34175e-05 0)
(-0.00182262 8.89572e-05 0)
(-0.00267591 0.00010823 0)
(-0.00362794 0.000129498 0)
(-0.00467403 0.000151129 0)
(-0.00580786 0.000172337 0)
(-0.00702243 0.000192793 0)
(-0.00831056 0.000212329 0)
(-0.00966511 0.000230778 0)
(-0.0110792 0.000247965 0)
(-0.0125464 0.000263739 0)
(-0.0140606 0.000277994 0)
(-0.0156165 0.000290684 0)
(-0.0172094 0.000301838 0)
(-0.0188356 0.000311531 0)
(-0.0204925 0.000319868 0)
(-0.0221786 0.000326979 0)
(-0.0238941 0.000332965 0)
(-0.0256401 0.000337823 0)
(-0.0274192 0.000341376 0)
(-0.029235 0.000343193 0)
(-0.0310919 0.000342494 0)
(-0.0329948 0.000337966 0)
(-0.034949 0.000327612 0)
(-0.0369598 0.000308759 0)
(-0.0390329 0.000278251 0)
(-0.0411762 0.000233235 0)
(-0.0434028 0.000172745 0)
(-0.0457367 9.99768e-05 0)
(-0.04822 2.5022e-05 0)
(-0.0509211 -3.25249e-05 0)
(-0.0539425 -4.15881e-05 0)
(-0.0574272 4.13459e-05 0)
(-0.0615606 0.000270023 0)
(-0.0665637 0.00070177 0)
(-0.0726738 0.00138396 0)
(-0.0801114 0.00233342 0)
(-0.0890317 0.0035156 0)
(-0.0994716 0.00483614 0)
(-0.111305 0.00615561 0)
(-0.124226 0.00731802 0)
(-0.13777 0.00818199 0)
(-0.151369 0.00864473 0)
(-0.164419 0.00865631 0)
(-0.176331 0.00824584 0)
(-0.186553 0.00752451 0)
(-0.194583 0.00659334 0)
(-0.200113 0.00552591 0)
(-0.202893 0.00428897 0)
(-0.202808 0.00289409 0)
(-0.199846 0.00137864 0)
(-0.19405 -0.00015748 0)
(-0.185485 -0.00166385 0)
(-0.1743 -0.00309892 0)
(-0.160746 -0.00439659 0)
(-0.145083 -0.00555977 0)
(-0.127569 -0.00655142 0)
(-0.108529 -0.00735416 0)
(-0.0882747 -0.00796844 0)
(-0.0671305 -0.00838279 0)
(-0.0454717 -0.00859189 0)
(-0.0235513 -0.00864205 0)
(-0.00175261 -0.00854202 0)
(0.0198139 -0.00830208 0)
(0.0406992 -0.00793047 0)
(0.0609496 -0.00745342 0)
(0.0800941 -0.00688241 0)
(0.098333 -0.00626788 0)
(0.115151 -0.00561719 0)
(0.13093 -0.00496811 0)
(0.145106 -0.00430642 0)
(0.158253 -0.00367619 0)
(0.16972 -0.00305258 0)
(0.180294 -0.00248869 0)
(0.189178 -0.00194419 0)
(0.197419 -0.00148308 0)
(0.20399 -0.00104536 0)
(0.210272 -0.000710908 0)
(0.214888 -0.000394619 0)
(0.219692 -0.000200254 0)
(0.222751 -8.30623e-06 0)
(0.226639 3.77484e-05 0)
(0.228513 0.000114155 0)
(0.232154 -5.68009e-06 0)
(0.233068 -1.10664e-05 0)
(0.237316 -0.000381349 0)
(5.29787e-05 -0.000502856 0)
(-0.000548428 0.000163059 0)
(-0.00204929 0.000723632 0)
(-0.00395111 0.00111067 0)
(-0.00621841 0.0013733 0)
(-0.00878193 0.00158282 0)
(-0.0116094 0.00177534 0)
(-0.0146772 0.00195687 0)
(-0.017959 0.00212601 0)
(-0.021429 0.00228156 0)
(-0.0250632 0.00242301 0)
(-0.0288385 0.00255039 0)
(-0.0327343 0.00266421 0)
(-0.0367317 0.0027653 0)
(-0.0408144 0.0028547 0)
(-0.044969 0.0029337 0)
(-0.0491846 0.00300375 0)
(-0.0534538 0.00306656 0)
(-0.0577723 0.00312406 0)
(-0.0621394 0.00317852 0)
(-0.0665582 0.00323265 0)
(-0.0710356 0.00328923 0)
(-0.0755821 0.00335097 0)
(-0.0802122 0.00342044 0)
(-0.0849437 0.00350015 0)
(-0.0897986 0.00359259 0)
(-0.094803 0.00370016 0)
(-0.0999871 0.00382537 0)
(-0.105386 0.00397169 0)
(-0.111039 0.00414488 0)
(-0.116991 0.00435515 0)
(-0.123294 0.00461986 0)
(-0.130007 0.0049653 0)
(-0.137194 0.00542732 0)
(-0.144922 0.00604978 0)
(-0.153249 0.00687986 0)
(-0.162217 0.00796137 0)
(-0.171832 0.00932157 0)
(-0.182052 0.0109554 0)
(-0.192774 0.0128088 0)
(-0.203821 0.0147676 0)
(-0.214945 0.0166637 0)
(-0.225826 0.0182912 0)
(-0.236091 0.0194427 0)
(-0.245338 0.0199392 0)
(-0.253159 0.0196561 0)
(-0.25917 0.0185426 0)
(-0.262998 0.016612 0)
(-0.264302 0.0139532 0)
(-0.262835 0.0106882 0)
(-0.258462 0.00688626 0)
(-0.251294 0.00272245 0)
(-0.241126 -0.00166803 0)
(-0.228164 -0.00614138 0)
(-0.212313 -0.0105833 0)
(-0.193787 -0.0148678 0)
(-0.17269 -0.0189281 0)
(-0.149241 -0.0226963 0)
(-0.123732 -0.0259047 0)
(-0.0964658 -0.0287432 0)
(-0.0676873 -0.031128 0)
(-0.0377624 -0.0330328 0)
(-0.00700032 -0.0344588 0)
(0.0244231 -0.0353716 0)
(0.0559619 -0.0358306 0)
(0.0875871 -0.0358293 0)
(0.118568 -0.0354286 0)
(0.149357 -0.0346461 0)
(0.178871 -0.0335319 0)
(0.207962 -0.0321333 0)
(0.235231 -0.0304917 0)
(0.261979 -0.0286801 0)
(0.286449 -0.0267255 0)
(0.310484 -0.0247137 0)
(0.331874 -0.02264 0)
(0.353079 -0.0206011 0)
(0.371286 -0.0185615 0)
(0.389746 -0.0166346 0)
(0.404817 -0.0147493 0)
(0.420797 -0.0130412 0)
(0.432885 -0.0113974 0)
(0.446798 -0.00998517 0)
(0.456112 -0.0086407 0)
(0.468502 -0.00757725 0)
(0.475261 -0.00656577 0)
(0.486797 -0.00588682 0)
(0.491191 -0.00522215 0)
(0.502662 -0.00495395 0)
(0.504807 -0.00463164 0)
(0.517083 -0.00480322 0)
(-0.000158427 0.000453381 0)
(-0.0019407 0.00232113 0)
(-0.00540511 0.00351138 0)
(-0.00932594 0.0042889 0)
(-0.0136721 0.0048905 0)
(-0.0183468 0.00543024 0)
(-0.0233144 0.00593254 0)
(-0.0285424 0.00639431 0)
(-0.0339825 0.00680886 0)
(-0.0395874 0.00717432 0)
(-0.0453148 0.00749132 0)
(-0.0511269 0.00776227 0)
(-0.0569916 0.00799128 0)
(-0.0628825 0.00818325 0)
(-0.0687785 0.00834358 0)
(-0.0746641 0.008478 0)
(-0.0805282 0.00859257 0)
(-0.086364 0.00869394 0)
(-0.092169 0.00878962 0)
(-0.0979438 0.00888726 0)
(-0.103692 0.00899437 0)
(-0.109422 0.00911826 0)
(-0.115142 0.00926594 0)
(-0.120861 0.00944402 0)
(-0.126591 0.00965894 0)
(-0.132342 0.00991717 0)
(-0.138122 0.0102249 0)
(-0.14394 0.0105878 0)
(-0.149798 0.0110116 0)
(-0.155697 0.011503 0)
(-0.161628 0.01207 0)
(-0.167579 0.0127218 0)
(-0.173527 0.0134717 0)
(-0.179442 0.0143359 0)
(-0.185278 0.01533 0)
(-0.19097 0.0164609 0)
(-0.196428 0.0177234 0)
(-0.201533 0.0190902 0)
(-0.206139 0.0205037 0)
(-0.210067 0.0218701 0)
(-0.213108 0.0230587 0)
(-0.215037 0.0238988 0)
(-0.215611 0.0241879 0)
(-0.214608 0.0237304 0)
(-0.211831 0.0223777 0)
(-0.207104 0.0200403 0)
(-0.200317 0.016722 0)
(-0.191351 0.0124407 0)
(-0.180166 0.00729842 0)
(-0.166833 0.00141046 0)
(-0.151277 -0.00508859 0)
(-0.133687 -0.0120617 0)
(-0.113749 -0.0192356 0)
(-0.0918659 -0.0263713 0)
(-0.0679676 -0.0333134 0)
(-0.0423972 -0.0399037 0)
(-0.0151807 -0.0460917 0)
(0.0134923 -0.0516315 0)
(0.0437183 -0.0565245 0)
(0.0747531 -0.0606544 0)
(0.106573 -0.0640583 0)
(0.138915 -0.0666516 0)
(0.17143 -0.0685092 0)
(0.204133 -0.0695165 0)
(0.236324 -0.0698542 0)
(0.268475 -0.0694557 0)
(0.299395 -0.0684542 0)
(0.330146 -0.0668307 0)
(0.359032 -0.0647307 0)
(0.387761 -0.0621655 0)
(0.414048 -0.0592773 0)
(0.440348 -0.0560908 0)
(0.463686 -0.0527291 0)
(0.487389 -0.0492247 0)
(0.507629 -0.0456828 0)
(0.528773 -0.0421335 0)
(0.545914 -0.0386585 0)
(0.564699 -0.0352829 0)
(0.578845 -0.0320658 0)
(0.595602 -0.0290274 0)
(0.606922 -0.0262066 0)
(0.622084 -0.0236209 0)
(0.630772 -0.0212909 0)
(0.64485 -0.0192358 0)
(0.651101 -0.0174577 0)
(0.664673 -0.015984 0)
(0.668663 -0.0147949 0)
(0.68237 -0.0139342 0)
(0.684237 -0.0133507 0)
(0.698756 -0.0131138 0)
(-0.00091216 0.00122738 0)
(-0.00475639 0.00509519 0)
(-0.010625 0.00753088 0)
(-0.0166384 0.00914413 0)
(-0.0229798 0.0103405 0)
(-0.029606 0.0113011 0)
(-0.0364384 0.0120974 0)
(-0.0433841 0.0127623 0)
(-0.0503567 0.0133072 0)
(-0.0572873 0.0137431 0)
(-0.0641235 0.0140825 0)
(-0.0708233 0.014338 0)
(-0.0773549 0.0145213 0)
(-0.0836958 0.0146443 0)
(-0.0898308 0.0147185 0)
(-0.0957498 0.014755 0)
(-0.101447 0.0147644 0)
(-0.106918 0.0147568 0)
(-0.112163 0.0147429 0)
(-0.117182 0.0147326 0)
(-0.121977 0.0147347 0)
(-0.126549 0.0147571 0)
(-0.130897 0.0148057 0)
(-0.135017 0.0148851 0)
(-0.138905 0.0149985 0)
(-0.142549 0.0151483 0)
(-0.145938 0.015336 0)
(-0.149052 0.0155605 0)
(-0.151867 0.01582 0)
(-0.154353 0.0161131 0)
(-0.15647 0.0164387 0)
(-0.158172 0.0167963 0)
(-0.159397 0.017188 0)
(-0.160079 0.01762 0)
(-0.160141 0.0181022 0)
(-0.159491 0.0186239 0)
(-0.158022 0.0191635 0)
(-0.155614 0.0196748 0)
(-0.152126 0.0200816 0)
(-0.147402 0.0202781 0)
(-0.141287 0.0201346 0)
(-0.13369 0.0195137 0)
(-0.124487 0.0182262 0)
(-0.113592 0.0160626 0)
(-0.100969 0.0129284 0)
(-0.08657 0.00873177 0)
(-0.0705253 0.00348476 0)
(-0.0528068 -0.00271641 0)
(-0.0334694 -0.00979521 0)
(-0.0125928 -0.0176136 0)
(0.00996175 -0.0259453 0)
(0.0338155 -0.034476 0)
(0.0592325 -0.0430921 0)
(0.0858557 -0.0516074 0)
(0.113921 -0.059913 0)
(0.14294 -0.0677637 0)
(0.173229 -0.0751748 0)
(0.204099 -0.0816451 0)
(0.235877 -0.0874108 0)
(0.268017 -0.0922224 0)
(0.300486 -0.0961286 0)
(0.332962 -0.098944 0)
(0.365171 -0.100798 0)
(0.397114 -0.101562 0)
(0.428162 -0.101429 0)
(0.458777 -0.100315 0)
(0.487889 -0.0984405 0)
(0.516542 -0.0957515 0)
(0.543134 -0.092491 0)
(0.569401 -0.0886244 0)
(0.593099 -0.0844003 0)
(0.616769 -0.0797867 0)
(0.637398 -0.0750232 0)
(0.658464 -0.0700698 0)
(0.676018 -0.0651501 0)
(0.694635 -0.060208 0)
(0.709229 -0.055446 0)
(0.725676 -0.0507898 0)
(0.737499 -0.0464217 0)
(0.752137 -0.0422518 0)
(0.76142 -0.0384439 0)
(0.774671 -0.0348974 0)
(0.781653 -0.0317594 0)
(0.793977 -0.0289259 0)
(0.798889 -0.0265263 0)
(0.810772 -0.0244626 0)
(0.813828 -0.0228421 0)
(0.825783 -0.0215858 0)
(0.827166 -0.0207687 0)
(0.839728 -0.0203462 0)
(-0.00125988 0.00690684 0)
(-0.0068062 0.0137208 0)
(-0.0153841 0.0163032 0)
(-0.0238473 0.017422 0)
(-0.0323482 0.0182341 0)
(-0.0406428 0.0190185 0)
(-0.0486004 0.0197228 0)
(-0.0561769 0.0202636 0)
(-0.0633395 0.0206176 0)
(-0.0700526 0.020809 0)
(-0.0762938 0.0208655 0)
(-0.0820533 0.0208122 0)
(-0.0873302 0.0206704 0)
(-0.0921297 0.0204596 0)
(-0.0964613 0.0201965 0)
(-0.100337 0.019896 0)
(-0.103768 0.0195705 0)
(-0.106765 0.0192302 0)
(-0.109338 0.0188852 0)
(-0.111496 0.0185448 0)
(-0.113243 0.0182165 0)
(-0.114583 0.0179057 0)
(-0.115515 0.0176154 0)
(-0.116034 0.0173463 0)
(-0.116129 0.0170965 0)
(-0.115784 0.0168632 0)
(-0.114983 0.016645 0)
(-0.113701 0.0164327 0)
(-0.111906 0.0162169 0)
(-0.109563 0.0159883 0)
(-0.106628 0.0157378 0)
(-0.103049 0.0154574 0)
(-0.0987586 0.0151397 0)
(-0.093674 0.0147805 0)
(-0.0877392 0.0144058 0)
(-0.080848 0.0139754 0)
(-0.0729104 0.0134597 0)
(-0.0638218 0.0128117 0)
(-0.0534721 0.0119604 0)
(-0.0417469 0.0108077 0)
(-0.0284784 0.0092049 0)
(-0.0137221 0.00700988 0)
(0.00257184 0.00407738 0)
(0.0203582 0.000296588 0)
(0.039661 -0.00441252 0)
(0.0604054 -0.0101037 0)
(0.0825091 -0.0168071 0)
(0.105934 -0.024437 0)
(0.130696 -0.0328675 0)
(0.156496 -0.0418735 0)
(0.183575 -0.051389 0)
(0.211496 -0.0611179 0)
(0.240558 -0.0709224 0)
(0.270285 -0.080551 0)
(0.301015 -0.0898739 0)
(0.332143 -0.0986195 0)
(0.364 -0.106696 0)
(0.395896 -0.113812 0)
(0.428125 -0.119971 0)
(0.460025 -0.124949 0)
(0.491778 -0.128804 0)
(0.522823 -0.131352 0)
(0.553217 -0.132737 0)
(0.582639 -0.132836 0)
(0.610946 -0.131862 0)
(0.63816 -0.129733 0)
(0.663856 -0.126719 0)
(0.6885 -0.122763 0)
(0.71128 -0.118168 0)
(0.733206 -0.11289 0)
(0.752964 -0.107244 0)
(0.77221 -0.101175 0)
(0.788998 -0.0949954 0)
(0.805743 -0.0886256 0)
(0.819727 -0.0823648 0)
(0.83425 -0.0761024 0)
(0.84566 -0.0701213 0)
(0.858295 -0.0642786 0)
(0.867387 -0.0588427 0)
(0.878496 -0.0536413 0)
(0.885529 -0.0489321 0)
(0.89549 -0.0445186 0)
(0.900708 -0.0406521 0)
(0.909899 -0.0371175 0)
(0.913525 -0.0341626 0)
(0.922326 -0.0315611 0)
(0.924554 -0.029558 0)
(0.933353 -0.0279246 0)
(0.934348 -0.0269024 0)
(0.943535 -0.0262733 0)
(-0.00366427 0.00673387 0)
(-0.013459 0.0171397 0)
(-0.0245021 0.0218362 0)
(-0.0336448 0.0244921 0)
(-0.0419717 0.0261015 0)
(-0.0496717 0.0269829 0)
(-0.0566937 0.0273064 0)
(-0.0629015 0.0272511 0)
(-0.0681949 0.0269524 0)
(-0.0725696 0.0264807 0)
(-0.0760768 0.0258822 0)
(-0.0787717 0.0251893 0)
(-0.0807101 0.0244294 0)
(-0.0819446 0.0236247 0)
(-0.0825241 0.0227931 0)
(-0.0824925 0.0219482 0)
(-0.0818887 0.0211008 0)
(-0.0807421 0.0202562 0)
(-0.0790788 0.019421 0)
(-0.0769184 0.0186013 0)
(-0.0742762 0.0178006 0)
(-0.0711607 0.017019 0)
(-0.0675751 0.0162542 0)
(-0.0635159 0.0155014 0)
(-0.0589723 0.0147535 0)
(-0.0539212 0.0140013 0)
(-0.0483593 0.01325 0)
(-0.0422501 0.012481 0)
(-0.035565 0.0116788 0)
(-0.0282665 0.0108287 0)
(-0.0203133 0.00991671 0)
(-0.0116546 0.00892764 0)
(-0.00223041 0.00784529 0)
(0.0081033 0.0066384 0)
(0.0192905 0.00527043 0)
(0.0314759 0.00374601 0)
(0.0447441 0.00204284 0)
(0.059177 0.000108773 0)
(0.0748845 -0.00212967 0)
(0.0918909 -0.00474987 0)
(0.110362 -0.00786358 0)
(0.130175 -0.0115529 0)
(0.151473 -0.0160005 0)
(0.17419 -0.0212808 0)
(0.198312 -0.0274388 0)
(0.223659 -0.0345001 0)
(0.250264 -0.0424239 0)
(0.277863 -0.0511562 0)
(0.306574 -0.0606081 0)
(0.336002 -0.0705936 0)
(0.366355 -0.0809702 0)
(0.397136 -0.0914879 0)
(0.428605 -0.101979 0)
(0.460166 -0.112168 0)
(0.492132 -0.121903 0)
(0.523789 -0.130899 0)
(0.55548 -0.13904 0)
(0.586411 -0.146058 0)
(0.61696 -0.151908 0)
(0.64632 -0.156382 0)
(0.674903 -0.159526 0)
(0.701961 -0.161191 0)
(0.727927 -0.161522 0)
(0.752192 -0.160427 0)
(0.775159 -0.158137 0)
(0.796417 -0.154604 0)
(0.816262 -0.15012 0)
(0.834539 -0.144662 0)
(0.851348 -0.138562 0)
(0.866847 -0.131791 0)
(0.880841 -0.124697 0)
(0.893871 -0.117225 0)
(0.905351 -0.10972 0)
(0.916276 -0.102086 0)
(0.925563 -0.0946563 0)
(0.934752 -0.0872897 0)
(0.942156 -0.0803099 0)
(0.94996 -0.0735279 0)
(0.955758 -0.067262 0)
(0.962498 -0.0612799 0)
(0.966931 -0.0559012 0)
(0.972897 -0.0508541 0)
(0.976166 -0.046467 0)
(0.981627 -0.0424329 0)
(0.983898 -0.0390954 0)
(0.9891 -0.0361165 0)
(0.990507 -0.0338606 0)
(0.99569 -0.0319633 0)
(0.996335 -0.0308149 0)
(1.00173 -0.0300309 0)
(-0.00178751 0.028732 0)
(-0.00958319 0.0404425 0)
(-0.0241613 0.040376 0)
(-0.0356584 0.0379721 0)
(-0.0448014 0.0361551 0)
(-0.0513262 0.0347035 0)
(-0.0555234 0.0332608 0)
(-0.0577826 0.0317486 0)
(-0.0584615 0.0301818 0)
(-0.0578338 0.0285839 0)
(-0.0560856 0.0269779 0)
(-0.0533618 0.0253782 0)
(-0.0497835 0.0238008 0)
(-0.0454529 0.0222567 0)
(-0.0404565 0.0207522 0)
(-0.0348642 0.0192893 0)
(-0.0287422 0.0178697 0)
(-0.0221226 0.0164817 0)
(-0.0150483 0.0151283 0)
(-0.00754488 0.0138115 0)
(0.000366607 0.0125306 0)
(0.00867986 0.0112795 0)
(0.0173931 0.0100493 0)
(0.0265145 0.00882903 0)
(0.0360532 0.0076071 0)
(0.0460824 0.00635953 0)
(0.0565427 0.00505632 0)
(0.0675095 0.00369358 0)
(0.0790168 0.00226423 0)
(0.0911083 0.000748226 0)
(0.103827 -0.000877905 0)
(0.117235 -0.00263809 0)
(0.131363 -0.00455807 0)
(0.146318 -0.00664965 0)
(0.162076 -0.00896018 0)
(0.178787 -0.0115218 0)
(0.196532 -0.0143648 0)
(0.21535 -0.0175327 0)
(0.235337 -0.0210887 0)
(0.256502 -0.025098 0)
(0.278947 -0.0296485 0)
(0.302622 -0.034798 0)
(0.327582 -0.0406262 0)
(0.353724 -0.0472086 0)
(0.381056 -0.0545837 0)
(0.409352 -0.0627494 0)
(0.438622 -0.0716708 0)
(0.468546 -0.0812628 0)
(0.499166 -0.0914186 0)
(0.530059 -0.101957 0)
(0.561298 -0.112707 0)
(0.592357 -0.123432 0)
(0.623364 -0.133937 0)
(0.653694 -0.143958 0)
(0.683561 -0.153314 0)
(0.712247 -0.161743 0)
(0.740071 -0.169111 0)
(0.766256 -0.175188 0)
(0.791254 -0.179918 0)
(0.814269 -0.18313 0)
(0.835906 -0.184868 0)
(0.85539 -0.185033 0)
(0.873468 -0.183775 0)
(0.889415 -0.181056 0)
(0.904072 -0.177119 0)
(0.91677 -0.171965 0)
(0.928375 -0.165902 0)
(0.938288 -0.15894 0)
(0.947325 -0.151422 0)
(0.954979 -0.143337 0)
(0.96195 -0.135037 0)
(0.967856 -0.126468 0)
(0.973217 -0.117977 0)
(0.977816 -0.109454 0)
(0.981943 -0.10124 0)
(0.985593 -0.0931693 0)
(0.988773 -0.0855783 0)
(0.99175 -0.0782454 0)
(0.994198 -0.0715112 0)
(0.996709 -0.0651008 0)
(0.998577 -0.0593693 0)
(1.00078 -0.0539907 0)
(1.00218 -0.0493448 0)
(1.0042 -0.0450558 0)
(1.0052 -0.0415378 0)
(1.00714 -0.038366 0)
(1.0078 -0.0359984 0)
(1.00974 -0.0339602 0)
(1.01007 -0.0327627 0)
(1.01209 -0.0318782 0)
(-0.0196882 0.00817186 0)
(-0.0380401 0.031882 0)
(-0.0413233 0.0392348 0)
(-0.0435014 0.04004 0)
(-0.0424451 0.03839 0)
(-0.0390138 0.0356366 0)
(-0.0336577 0.0325695 0)
(-0.0267102 0.0295154 0)
(-0.018433 0.0265852 0)
(-0.0091031 0.0238368 0)
(0.00109489 0.0212515 0)
(0.0119969 0.0188048 0)
(0.0234594 0.0164876 0)
(0.0353712 0.0142942 0)
(0.0476418 0.0122174 0)
(0.0602219 0.0102467 0)
(0.0730087 0.00837833 0)
(0.0860475 0.00660518 0)
(0.099281 0.00490529 0)
(0.112697 0.00325164 0)
(0.126274 0.00162638 0)
(0.140028 1.91541e-05 0)
(0.15397 -0.0015776 0)
(0.168133 -0.0031783 0)
(0.182517 -0.00480413 0)
(0.1972 -0.00647541 0)
(0.212152 -0.00822085 0)
(0.227468 -0.0100666 0)
(0.243191 -0.0120317 0)
(0.259369 -0.0141392 0)
(0.276044 -0.0164127 0)
(0.293277 -0.0188818 0)
(0.311112 -0.0215699 0)
(0.329613 -0.0245117 0)
(0.348828 -0.0277118 0)
(0.368814 -0.0312102 0)
(0.389631 -0.035048 0)
(0.411316 -0.039269 0)
(0.433914 -0.0439193 0)
(0.457434 -0.0490515 0)
(0.481898 -0.0547178 0)
(0.507266 -0.0609708 0)
(0.533515 -0.0678489 0)
(0.560527 -0.0753861 0)
(0.588234 -0.0835834 0)
(0.616422 -0.0924137 0)
(0.644987 -0.101809 0)
(0.673627 -0.111669 0)
(0.702238 -0.12186 0)
(0.730427 -0.132216 0)
(0.758108 -0.142552 0)
(0.784812 -0.152652 0)
(0.810525 -0.162308 0)
(0.834724 -0.17128 0)
(0.857524 -0.179376 0)
(0.878361 -0.186376 0)
(0.897529 -0.192143 0)
(0.914444 -0.196502 0)
(0.929616 -0.199407 0)
(0.942439 -0.200753 0)
(0.953651 -0.2006 0)
(0.962612 -0.198912 0)
(0.970279 -0.195848 0)
(0.975948 -0.191426 0)
(0.980746 -0.185894 0)
(0.983874 -0.179295 0)
(0.986568 -0.171936 0)
(0.987917 -0.163846 0)
(0.989217 -0.155358 0)
(0.989445 -0.146461 0)
(0.989921 -0.13749 0)
(0.989526 -0.128375 0)
(0.989579 -0.11945 0)
(0.988894 -0.110584 0)
(0.988777 -0.102111 0)
(0.988001 -0.0938381 0)
(0.987856 -0.086106 0)
(0.987097 -0.0786622 0)
(0.986993 -0.0718619 0)
(0.986297 -0.0653949 0)
(0.986261 -0.059641 0)
(0.98564 -0.054234 0)
(0.985672 -0.0495887 0)
(0.985117 -0.0452828 0)
(0.985204 -0.041776 0)
(0.984691 -0.0385887 0)
(0.984806 -0.0362358 0)
(0.984301 -0.0341774 0)
(0.984402 -0.0329931 0)
(0.983856 -0.0320764 0)
(-0.0190919 0.108147 0)
(-0.01828 0.0728182 0)
(-0.0114363 0.0580655 0)
(0.00111188 0.0461568 0)
(0.0175497 0.036326 0)
(0.0361882 0.0287595 0)
(0.0560712 0.0228061 0)
(0.0764995 0.017901 0)
(0.0972093 0.0136633 0)
(0.117756 0.00991291 0)
(0.138173 0.00658251 0)
(0.158401 0.0036282 0)
(0.178365 0.000980176 0)
(0.198038 -0.00143227 0)
(0.217394 -0.00365976 0)
(0.236473 -0.00573602 0)
(0.255228 -0.00768596 0)
(0.273734 -0.00953268 0)
(0.29197 -0.0112989 0)
(0.309958 -0.0130138 0)
(0.32772 -0.0147029 0)
(0.345305 -0.0163903 0)
(0.362757 -0.0180951 0)
(0.380123 -0.0198408 0)
(0.397439 -0.0216488 0)
(0.414763 -0.0235489 0)
(0.432138 -0.0255557 0)
(0.449627 -0.0276978 0)
(0.467281 -0.0300037 0)
(0.485158 -0.0325014 0)
(0.503304 -0.0352147 0)
(0.521771 -0.0381688 0)
(0.540598 -0.0413858 0)
(0.559831 -0.0448908 0)
(0.579503 -0.0487041 0)
(0.599644 -0.0528539 0)
(0.620275 -0.057367 0)
(0.64141 -0.0622751 0)
(0.663044 -0.0676054 0)
(0.685157 -0.0733904 0)
(0.70771 -0.0796546 0)
(0.730639 -0.0864255 0)
(0.753847 -0.093714 0)
(0.777206 -0.101524 0)
(0.800561 -0.109829 0)
(0.823715 -0.118581 0)
(0.846469 -0.127692 0)
(0.868564 -0.137054 0)
(0.889788 -0.146521 0)
(0.909838 -0.15593 0)
(0.928535 -0.165093 0)
(0.945572 -0.173814 0)
(0.960867 -0.181885 0)
(0.97413 -0.189111 0)
(0.985431 -0.195311 0)
(0.994509 -0.200322 0)
(1.00164 -0.204028 0)
(1.00658 -0.20633 0)
(1.00983 -0.2072 0)
(1.01111 -0.206613 0)
(1.01116 -0.204643 0)
(1.0096 -0.20132 0)
(1.0074 -0.1968 0)
(1.00396 -0.19115 0)
(1.00044 -0.184597 0)
(0.996003 -0.17721 0)
(0.991974 -0.169257 0)
(0.987223 -0.160771 0)
(0.98325 -0.15204 0)
(0.978622 -0.143042 0)
(0.975029 -0.134074 0)
(0.97074 -0.125045 0)
(0.96766 -0.116268 0)
(0.96377 -0.107582 0)
(0.961215 -0.0993224 0)
(0.9577 -0.0912598 0)
(0.955638 -0.0837569 0)
(0.952442 -0.0765161 0)
(0.950826 -0.0699343 0)
(0.947886 -0.0636434 0)
(0.946671 -0.0580834 0)
(0.943915 -0.0528148 0)
(0.943059 -0.048331 0)
(0.940411 -0.04412 0)
(0.939867 -0.040739 0)
(0.937242 -0.0376009 0)
(0.936958 -0.0353363 0)
(0.934252 -0.033279 0)
(0.93416 -0.0321415 0)
(0.931255 -0.0311743 0)
(0.0700975 0.00705395 0)
(0.0901549 0.00647734 0)
(0.153987 0.00595694 0)
(0.199106 0.00270815 0)
(0.238146 -0.00166567 0)
(0.273698 -0.00587056 0)
(0.306561 -0.00952136 0)
(0.33662 -0.0126363 0)
(0.364614 -0.0153249 0)
(0.390827 -0.0176668 0)
(0.41562 -0.0197412 0)
(0.439196 -0.0216035 0)
(0.461668 -0.0232936 0)
(0.48314 -0.0248461 0)
(0.503707 -0.0262869 0)
(0.523471 -0.0276413 0)
(0.542495 -0.0289282 0)
(0.560855 -0.0301757 0)
(0.578606 -0.0314056 0)
(0.595805 -0.0326385 0)
(0.612509 -0.0338955 0)
(0.628782 -0.0352002 0)
(0.644683 -0.0365775 0)
(0.66027 -0.038052 0)
(0.675596 -0.0396465 0)
(0.690718 -0.0413838 0)
(0.705687 -0.043285 0)
(0.720557 -0.0453728 0)
(0.735372 -0.0476701 0)
(0.750181 -0.0501991 0)
(0.765022 -0.0529812 0)
(0.779926 -0.0560379 0)
(0.794917 -0.0593886 0)
(0.810014 -0.0630522 0)
(0.825226 -0.0670452 0)
(0.840555 -0.0713841 0)
(0.855987 -0.0760848 0)
(0.871502 -0.0811634 0)
(0.887059 -0.0866333 0)
(0.902605 -0.0925068 0)
(0.918059 -0.0987898 0)
(0.933329 -0.105484 0)
(0.948282 -0.112579 0)
(0.962784 -0.120052 0)
(0.976664 -0.127854 0)
(0.989752 -0.135923 0)
(1.00185 -0.144161 0)
(1.01277 -0.152456 0)
(1.02232 -0.160664 0)
(1.03034 -0.168631 0)
(1.03669 -0.176179 0)
(1.04126 -0.183143 0)
(1.04401 -0.189346 0)
(1.04493 -0.194644 0)
(1.04412 -0.198897 0)
(1.04161 -0.202009 0)
(1.03769 -0.203902 0)
(1.03241 -0.204544 0)
(1.02621 -0.203927 0)
(1.01908 -0.202081 0)
(1.01159 -0.199066 0)
(1.00358 -0.19496 0)
(0.995712 -0.189881 0)
(0.987582 -0.183931 0)
(0.979989 -0.177265 0)
(0.972207 -0.169969 0)
(0.96524 -0.162222 0)
(0.957992 -0.154071 0)
(0.951754 -0.145717 0)
(0.945029 -0.137154 0)
(0.939483 -0.128609 0)
(0.933182 -0.120014 0)
(0.928245 -0.111632 0)
(0.922255 -0.103325 0)
(0.91786 -0.0953998 0)
(0.912095 -0.0876414 0)
(0.908223 -0.0804101 0)
(0.902639 -0.0734027 0)
(0.899311 -0.0670427 0)
(0.893876 -0.0609268 0)
(0.891125 -0.0555533 0)
(0.885793 -0.0504079 0)
(0.883642 -0.0460809 0)
(0.878333 -0.0419385 0)
(0.876787 -0.0386843 0)
(0.871377 -0.0355541 0)
(0.870414 -0.0333834 0)
(0.864735 -0.0312624 0)
(0.864309 -0.0301773 0)
(0.858151 -0.0290576 0)
(0.774074 -0.0093535 0)
(0.775763 -0.020865 0)
(0.776734 -0.0271636 0)
(0.778565 -0.030944 0)
(0.782394 -0.0336801 0)
(0.787986 -0.0359765 0)
(0.795073 -0.0379613 0)
(0.803012 -0.0396062 0)
(0.811592 -0.0409254 0)
(0.820595 -0.0419619 0)
(0.829837 -0.0427926 0)
(0.839191 -0.0434902 0)
(0.848561 -0.0441006 0)
(0.857874 -0.0446497 0)
(0.867076 -0.0451549 0)
(0.876129 -0.0456328 0)
(0.885002 -0.0461012 0)
(0.893677 -0.0465803 0)
(0.902143 -0.0470912 0)
(0.910399 -0.0476548 0)
(0.918449 -0.0482945 0)
(0.926305 -0.0490344 0)
(0.933984 -0.0499003 0)
(0.941503 -0.050916 0)
(0.948883 -0.0521047 0)
(0.956143 -0.0534871 0)
(0.963302 -0.0550836 0)
(0.97038 -0.0569124 0)
(0.977391 -0.0589919 0)
(0.984347 -0.0613382 0)
(0.991256 -0.0639678 0)
(0.998116 -0.0668945 0)
(1.00493 -0.0701319 0)
(1.01167 -0.0736903 0)
(1.01835 -0.0775793 0)
(1.02492 -0.081806 0)
(1.03135 -0.0863771 0)
(1.03761 -0.0912966 0)
(1.04363 -0.0965671 0)
(1.04936 -0.102186 0)
(1.05471 -0.108147 0)
(1.05959 -0.114432 0)
(1.06391 -0.121013 0)
(1.06755 -0.127846 0)
(1.0704 -0.134875 0)
(1.07234 -0.142025 0)
(1.07328 -0.149204 0)
(1.07311 -0.156305 0)
(1.07177 -0.163202 0)
(1.06922 -0.169768 0)
(1.06543 -0.175863 0)
(1.06047 -0.18136 0)
(1.05438 -0.186132 0)
(1.04729 -0.190073 0)
(1.03934 -0.193087 0)
(1.03071 -0.195113 0)
(1.02158 -0.1961 0)
(1.01212 -0.19604 0)
(1.00253 -0.194929 0)
(0.992901 -0.192804 0)
(0.983403 -0.189699 0)
(0.97398 -0.18569 0)
(0.964811 -0.180841 0)
(0.955659 -0.175241 0)
(0.946795 -0.168969 0)
(0.937783 -0.162116 0)
(0.929085 -0.154777 0)
(0.920023 -0.147035 0)
(0.911361 -0.139004 0)
(0.902117 -0.130745 0)
(0.89347 -0.122402 0)
(0.884033 -0.114008 0)
(0.875507 -0.10574 0)
(0.865964 -0.0975764 0)
(0.857752 -0.0897284 0)
(0.848241 -0.0820963 0)
(0.840583 -0.0749399 0)
(0.831242 -0.0680667 0)
(0.824372 -0.0618024 0)
(0.815287 -0.0558394 0)
(0.809402 -0.0505902 0)
(0.800567 -0.0456084 0)
(0.795801 -0.0414235 0)
(0.787095 -0.0374289 0)
(0.783519 -0.0343131 0)
(0.774708 -0.0312801 0)
(0.772356 -0.0292205 0)
(0.763103 -0.0271095 0)
(0.761994 -0.0260869 0)
(0.751869 -0.0248544 0)
(1.05739 0.00802967 0)
(1.06053 -0.000443962 0)
(1.06131 -0.00768523 0)
(1.06064 -0.0134295 0)
(1.05983 -0.0181561 0)
(1.05961 -0.0222747 0)
(1.0601 -0.0259602 0)
(1.06116 -0.0292249 0)
(1.06257 -0.032066 0)
(1.06418 -0.0345063 0)
(1.06589 -0.0365906 0)
(1.06766 -0.0383736 0)
(1.06946 -0.0399079 0)
(1.07128 -0.0412393 0)
(1.07309 -0.0424071 0)
(1.07486 -0.0434468 0)
(1.07658 -0.0443923 0)
(1.07824 -0.0452766 0)
(1.07981 -0.0461326 0)
(1.08129 -0.0469928 0)
(1.08268 -0.0478899 0)
(1.08398 -0.0488556 0)
(1.08519 -0.0499216 0)
(1.0863 -0.0511169 0)
(1.08733 -0.0524694 0)
(1.08827 -0.0540037 0)
(1.08914 -0.0557431 0)
(1.08992 -0.0577076 0)
(1.09062 -0.059916 0)
(1.09123 -0.0623838 0)
(1.09175 -0.0651249 0)
(1.09217 -0.0681489 0)
(1.09248 -0.0714647 0)
(1.09265 -0.0750776 0)
(1.09267 -0.0789929 0)
(1.09252 -0.0832122 0)
(1.09217 -0.0877368 0)
(1.09159 -0.0925637 0)
(1.09073 -0.0976887 0)
(1.08956 -0.103101 0)
(1.08804 -0.108785 0)
(1.08612 -0.114716 0)
(1.08374 -0.12086 0)
(1.08086 -0.127171 0)
(1.07744 -0.13359 0)
(1.07343 -0.140048 0)
(1.06881 -0.146461 0)
(1.06356 -0.152737 0)
(1.05768 -0.158777 0)
(1.05119 -0.164474 0)
(1.04413 -0.169727 0)
(1.03655 -0.174434 0)
(1.0285 -0.178503 0)
(1.02005 -0.181844 0)
(1.01126 -0.18438 0)
(1.00218 -0.186046 0)
(0.992821 -0.18679 0)
(0.983211 -0.18658 0)
(0.973319 -0.185399 0)
(0.963114 -0.183263 0)
(0.952526 -0.180191 0)
(0.941487 -0.176233 0)
(0.929938 -0.17142 0)
(0.917799 -0.165812 0)
(0.905082 -0.159457 0)
(0.891699 -0.152457 0)
(0.877803 -0.1449 0)
(0.863268 -0.136913 0)
(0.848433 -0.128594 0)
(0.833058 -0.12007 0)
(0.817723 -0.111447 0)
(0.801966 -0.102859 0)
(0.78669 -0.0944222 0)
(0.771065 -0.0862345 0)
(0.756431 -0.0783949 0)
(0.741404 -0.0709396 0)
(0.727919 -0.0639616 0)
(0.713806 -0.0574305 0)
(0.701848 -0.0514601 0)
(0.688792 -0.0459429 0)
(0.678617 -0.0410411 0)
(0.666566 -0.0365516 0)
(0.658318 -0.0327219 0)
(0.64702 -0.0292213 0)
(0.640751 -0.0264259 0)
(0.62975 -0.0238346 0)
(0.625501 -0.0220144 0)
(0.614163 -0.0202381 0)
(0.612034 -0.0193425 0)
(0.599534 -0.0182979 0)
(1.08199 -0.00351327 0)
(1.08799 -0.0111685 0)
(1.0923 -0.0185896 0)
(1.09496 -0.0247829 0)
(1.09646 -0.0296063 0)
(1.09743 -0.0333842 0)
(1.09826 -0.0364751 0)
(1.0991 -0.0391054 0)
(1.09995 -0.0413694 0)
(1.10076 -0.0432932 0)
(1.10148 -0.0448912 0)
(1.1021 -0.0461902 0)
(1.10263 -0.0472312 0)
(1.10307 -0.048062 0)
(1.10342 -0.0487302 0)
(1.10369 -0.0492799 0)
(1.10388 -0.0497517 0)
(1.10398 -0.0501827 0)
(1.10398 -0.0506086 0)
(1.10388 -0.0510631 0)
(1.10367 -0.0515796 0)
(1.10335 -0.0521892 0)
(1.10292 -0.0529225 0)
(1.10239 -0.0538073 0)
(1.10174 -0.0548698 0)
(1.10098 -0.0561332 0)
(1.10012 -0.0576184 0)
(1.09914 -0.0593428 0)
(1.09804 -0.0613222 0)
(1.09683 -0.0635681 0)
(1.0955 -0.0660907 0)
(1.09403 -0.0688959 0)
(1.09244 -0.0719894 0)
(1.09069 -0.0753731 0)
(1.0888 -0.0790493 0)
(1.08673 -0.0830161 0)
(1.08449 -0.0872718 0)