/*--------------------------------*- C++ -*----------------------------------*\
| =========                 |                                                 |
| \\      /  F ield         | OpenFOAM: The Open Source CFD Toolbox           |
|  \\    /   O peration     | Version:  2306                                  |
|   \\  /    A nd           | Website:  www.openfoam.com                      |
|    \\/     M anipulation  |                                                 |
\*---------------------------------------------------------------------------*/
FoamFile
{
    version     2.0;
    format      ascii;
    arch        "LSB;label=32;scalar=64";
    class       volScalarField;
    location    "3.63";
    object      p;
}
// * * * * * * * * * * * * * * * * * * * * * * * * * * * * * * * * * * * * * //

dimensions      [0 2 -2 0 0 0 0];

internalField   nonuniform List<scalar> 
1900
(
0.0577466
0.033521
0.0131245
-0.00222313
-0.0132523
-0.0238226
-0.0342834
-0.046476
-0.0590667
-0.0731703
0.028486
0.0202863
0.00896641
-0.00259228
-0.0136258
-0.0238256
-0.0342754
-0.0448092
-0.0563308
-0.0674066
0.0193972
0.0149054
0.00738723
-0.00198496
-0.0120739
-0.0220592
-0.0318454
-0.0414053
-0.0508407
-0.0599383
0.0137003
0.0106264
0.00497519
-0.0026753
-0.0115298
-0.0207736
-0.029969
-0.038888
-0.0474869
-0.0556501
0.0114814
0.0089459
0.00420701
-0.00244128
-0.0104202
-0.0190238
-0.0276984
-0.0361208
-0.0441399
-0.0516657
0.0121208
0.00964043
0.00503057
-0.00143312
-0.00916963
-0.0174704
-0.025776
-0.0337687
-0.0413238
-0.0484119
0.0155812
0.0126361
0.00735683
0.000276655
-0.00777929
-0.0160602
-0.0241001
-0.031721
-0.0389145
-0.0457148
0.0222843
0.0179902
0.0110952
0.00263067
-0.00618306
-0.014599
-0.022421
-0.0297425
-0.0367122
-0.0433918
0.0324287
0.0243313
0.0138988
0.00344346
-0.00585552
-0.0139565
-0.0213115
-0.0283426
-0.0352128
-0.0418815
0.0612805
0.0386101
0.0189074
0.00485115
-0.00479722
-0.0124804
-0.019694
-0.0268927
-0.0340257
-0.0408873
-0.096439
-0.0964726
-0.096517
-0.0965706
-0.0966303
-0.0966959
-0.0967668
-0.0968421
-0.0969204
-0.0970003
-0.0970801
-0.0971584
-0.0972334
-0.0973038
-0.097368
-0.0974245
-0.0974721
-0.0975095
-0.0975358
-0.09755
-0.0975514
-0.0975394
-0.0975136
-0.0974736
-0.0974194
-0.0973508
-0.0972679
-0.0971709
-0.0970603
-0.0969368
-0.0968013
-0.0966553
-0.0965005
-0.0963389
-0.0961718
-0.095999
-0.0958171
-0.0956178
-0.0953858
-0.0950973
-0.0947203
-0.0942154
-0.0935387
-0.0926431
-0.091478
-0.0899858
-0.0880981
-0.0857336
-0.0828015
-0.0792055
-0.0748471
-0.0696556
-0.0635915
-0.056651
-0.0489088
-0.040437
-0.0313569
-0.0218291
-0.0120408
-0.00219665
0.00749689
0.0168359
0.0256332
0.0337223
0.0409631
0.0472561
0.0525329
0.0567642
0.0599465
0.0621103
0.0633038
0.0636007
0.0630788
0.0618328
0.059953
0.0575383
0.0546728
0.0514459
0.0479253
0.0441846
0.0402705
0.0362394
0.0321158
0.0279416
0.0237187
0.0194802
0.0152032
0.0109223
0.00658228
0.00224443
-0.0964346
-0.0964661
-0.0964929
-0.096534
-0.0965849
-0.096644
-0.0967099
-0.0967807
-0.0968552
-0.0969317
-0.0970086
-0.0970844
-0.0971575
-0.0972262
-0.097289
-0.0973444
-0.097391
-0.0974276
-0.0974531
-0.0974664
-0.0974669
-0.0974538
-0.0974265
-0.0973848
-0.0973282
-0.0972568
-0.0971704
-0.0970691
-0.096953
-0.0968225
-0.0966779
-0.0965198
-0.096349
-0.0961661
-0.0959715
-0.0957647
-0.0955429
-0.0953002
-0.0950258
-0.0947033
-0.09431
-0.0938172
-0.0931894
-0.0923839
-0.0913493
-0.0900226
-0.0883241
-0.0861548
-0.0834011
-0.0799475
-0.0757006
-0.0706032
-0.0646515
-0.0578369
-0.0501617
-0.0417231
-0.0326512
-0.0231129
-0.0132975
-0.00341553
0.0063241
0.0157075
0.0245437
0.0326793
0.039949
0.0462675
0.0515661
0.0558178
0.0590172
0.0611969
0.0624043
0.0627172
0.0622153
0.0609966
0.0591465
0.0567673
0.0539383
0.0507542
0.0472759
0.0435841
0.0397162
0.0357386
0.0316635
0.027546
0.0233726
0.0191932
0.0149673
0.0107468
0.00646456
0.00219799
-0.096317
-0.0963983
-0.0964435
-0.0964967
-0.0965526
-0.0966137
-0.0966811
-0.0967538
-0.0968304
-0.0969094
-0.0969891
-0.0970679
-0.0971441
-0.0972159
-0.0972817
-0.09734
-0.0973894
-0.0974284
-0.0974559
-0.0974708
-0.0974723
-0.0974596
-0.0974324
-0.0973902
-0.0973328
-0.0972603
-0.0971727
-0.0970702
-0.0969532
-0.0968219
-0.0966764
-0.0965167
-0.0963428
-0.0961548
-0.0959522
-0.0957338
-0.0954976
-0.0952399
-0.0949557
-0.0946375
-0.0942734
-0.0938447
-0.0933247
-0.0926723
-0.0918275
-0.090712
-0.0892294
-0.0872629
-0.0846906
-0.08141
-0.0773161
-0.0723214
-0.0663827
-0.0595299
-0.0518159
-0.0433409
-0.034234
-0.024658
-0.0148145
-0.00493026
0.004796
0.0141644
0.0229812
0.0310874
0.0383334
0.0446241
0.0498912
0.0541126
0.0572841
0.0594432
0.0606374
0.0609489
0.0604544
0.0592566
0.0574383
0.0551057
0.0523337
0.0492206
0.0458226
0.0422238
0.0384566
0.0345905
0.0306333
0.0266427
0.0226021
0.0185618
0.0144815
0.0104094
0.00628511
0.00216511
-0.0964004
-0.0964736
-0.0964773
-0.0965026
-0.0965477
-0.0966093
-0.096682
-0.096762
-0.0968466
-0.0969339
-0.0970219
-0.0971084
-0.0971916
-0.0972698
-0.0973413
-0.0974044
-0.0974576
-0.0974995
-0.0975289
-0.0975448
-0.0975463
-0.097533
-0.0975043
-0.09746
-0.0974
-0.0973242
-0.097233
-0.0971265
-0.0970052
-0.0968691
-0.0967183
-0.0965524
-0.0963703
-0.0961712
-0.0959553
-0.095723
-0.0954751
-0.0952126
-0.0949349
-0.0946389
-0.0943173
-0.0939585
-0.0935386
-0.0930142
-0.0923128
-0.0913419
-0.0900035
-0.0881756
-0.0857183
-0.0825101
-0.0784634
-0.0735064
-0.0676133
-0.0608029
-0.0531314
-0.0447062
-0.0356647
-0.0261772
-0.0164455
-0.00668567
0.00289266
0.0120934
0.020727
0.028639
0.0356937
0.0418007
0.0468956
0.0509611
0.0539992
0.0560526
0.0571719
0.0574416
0.0569386
0.0557664
0.054007
0.0517647
0.0491122
0.0461444
0.0429153
0.0395051
0.0359452
0.0323002
0.0285791
0.0248337
0.0210515
0.017275
0.0134719
0.00967911
0.00584559
0.00200824
-0.0960738
-0.0962788
-0.096369
-0.0964725
-0.0965705
-0.0966631
-0.0967549
-0.0968493
-0.0969461
-0.0970435
-0.09714
-0.0972336
-0.0973227
-0.0974053
-0.09748
-0.097545
-0.097599
-0.0976406
-0.0976684
-0.0976815
-0.0976792
-0.0976611
-0.0976271
-0.097577
-0.0975109
-0.0974291
-0.0973319
-0.0972202
-0.0970941
-0.0969538
-0.0967991
-0.0966294
-0.0964428
-0.0962377
-0.096015
-0.0957764
-0.0955244
-0.0952625
-0.0949928
-0.0947145
-0.0944202
-0.0940993
-0.09373
-0.0932682
-0.0926234
-0.0917026
-0.0903869
-0.0885666
-0.0861135
-0.0829129
-0.0788733
-0.073937
-0.0680835
-0.0613384
-0.0537678
-0.0454821
-0.0366257
-0.0273721
-0.017918
-0.00847143
0.000760523
0.00958759
0.0178331
0.025352
0.0320235
0.0377674
0.0425305
0.0463028
0.0490954
0.0509563
0.0519414
0.0521352
0.051616
0.0504833
0.0488183
0.0467188
0.0442552
0.041514
0.0385477
0.0354273
0.0321847
0.0288749
0.0255101
0.0221317
0.018734
0.0153482
0.0119522
0.00857061
0.00516804
0.00176903
-0.0969072
-0.0969289
-0.0968266
-0.0967806
-0.0967903
-0.0968473
-0.0969344
-0.0970345
-0.0971368
-0.0972378
-0.0973357
-0.0974287
-0.0975153
-0.097594
-0.0976634
-0.0977223
-0.0977694
-0.0978034
-0.0978231
-0.0978277
-0.0978166
-0.0977898
-0.0977474
-0.0976895
-0.0976163
-0.0975277
-0.0974248
-0.0973083
-0.0971786
-0.0970356
-0.0968789
-0.0967075
-0.0965194
-0.0963107
-0.0960873
-0.0958506
-0.0956019
-0.0953443
-0.09508
-0.094808
-0.0945185
-0.0941897
-0.093793
-0.0932826
-0.0925797
-0.0915881
-0.0901962
-0.0882906
-0.0857545
-0.0824844
-0.0784
-0.0734564
-0.0676443
-0.0609979
-0.0535921
-0.0455433
-0.0369994
-0.028135
-0.0191406
-0.0102132
-0.0015453
0.00668645
0.0143242
0.0212388
0.0273285
0.0325282
0.0368021
0.0401502
0.0425953
0.0441898
0.044996
0.0450957
0.0445676
0.0435034
0.0419816
0.0400888
0.0378922
0.0354657
0.0328595
0.0301318
0.0273145
0.0244505
0.0215548
0.0186572
0.015758
0.0128771
0.0100026
0.00714827
0.00429379
0.00145297
-0.0955757
-0.0962245
-0.0964267
-0.096683
-0.0968981
-0.097061
-0.0971828
-0.097283
-0.0973751
-0.0974624
-0.0975454
-0.0976232
-0.0976944
-0.097758
-0.0978129
-0.0978578
-0.0978921
-0.0979143
-0.097923
-0.0979174
-0.097897
-0.0978617
-0.0978115
-0.0977467
-0.0976672
-0.0975724
-0.0974652
-0.0973461
-0.0972148
-0.0970707
-0.0969136
-0.0967425
-0.0965554
-0.0963484
-0.0961175
-0.0958679
-0.0956032
-0.0953241
-0.095029
-0.0947126
-0.0943627
-0.0939573
-0.0934612
-0.0928229
-0.0919666
-0.0908006
-0.0892211
-0.0871239
-0.0844089
-0.0809917
-0.0768102
-0.0718346
-0.0660702
-0.0595632
-0.0523982
-0.0446966
-0.0366072
-0.0283004
-0.0199564
-0.0117567
-0.00387137
0.00354679
0.0103671
0.0164837
0.0218199
0.0263303
0.0299987
0.0328373
0.03488
0.0361814
0.0368063
0.0368305
0.0363297
0.0353837
0.0340652
0.0324469
0.0305899
0.0285538
0.0263845
0.0241267
0.021811
0.0194679
0.0171143
0.0147689
0.0124371
0.010129
0.00784129
0.0055786
0.00333306
0.00111054
-0.100294
-0.0989137
-0.098285
-0.0978512
-0.0976244
-0.0975346
-0.0975221
-0.0975455
-0.0975831
-0.0976274
-0.0976753
-0.0977237
-0.0977706
-0.0978144
-0.0978533
-0.0978852
-0.0979092
-0.0979216
-0.0979213
-0.0979082
-0.0978821
-0.0978432
-0.0977907
-0.0977243
-0.0976439
-0.0975477
-0.0974331
-0.097304
-0.0971614
-0.0970038
-0.0968289
-0.0966344
-0.0964177
-0.0961758
-0.0959069
-0.095611
-0.095288
-0.0949355
-0.0945483
-0.0941169
-0.0936244
-0.093045
-0.0923398
-0.0914561
-0.0903249
-0.0888649
-0.0869872
-0.084604
-0.0816363
-0.0780236
-0.0737266
-0.068735
-0.0630707
-0.0567917
-0.0499882
-0.042781
-0.0353133
-0.0277443
-0.0202358
-0.0129475
-0.00602304
0.000414995
0.00626975
0.0114649
0.0159521
0.019707
0.0227321
0.0250487
0.0266974
0.0277299
0.0282083
0.0281982
0.0277683
0.0269848
0.0259124
0.024609
0.0231282
0.0215156
0.0198118
0.0180489
0.0162555
0.0144513
0.0126541
0.0108734
0.00911867
0.0073919
0.00569695
0.00403071
0.00239374
0.000781412
-0.0944443
-0.0955377
-0.0963769
-0.0969894
-0.0973058
-0.0974234
-0.0974566
-0.0974682
-0.0974827
-0.0975115
-0.0975495
-0.0975895
-0.0976294
-0.0976678
-0.097703
-0.0977335
-0.0977584
-0.0977773
-0.0977835
-0.0977731
-0.0977455
-0.0977014
-0.097642
-0.0975656
-0.09747
-0.0973531
-0.0972139
-0.0970525
-0.0968686
-0.0966604
-0.0964249
-0.096159
-0.095859
-0.0955212
-0.0951419
-0.0947177
-0.094245
-0.0937186
-0.0931302
-0.0924665
-0.091708
-0.0908277
-0.0897893
-0.0885455
-0.0870386
-0.0852034
-0.0829714
-0.0802772
-0.0770639
-0.0732896
-0.0689362
-0.0640143
-0.0585623
-0.0526481
-0.0463638
-0.0398244
-0.0331582
-0.0265023
-0.0199902
-0.0137486
-0.00788734
-0.00250052
0.00234456
0.00660026
0.0102439
0.0132687
0.015689
0.01753
0.0188328
0.0196423
0.0200136
0.0200002
0.0196625
0.0190539
0.0182312
0.0172394
0.0161251
0.014921
0.0136629
0.0123715
0.0110733
0.00977821
0.0085054
0.0072554
0.0060424
0.00485989
0.00371959
0.00260969
0.00154094
0.000496436
-0.117152
-0.102214
-0.100285
-0.0988081
-0.0978925
-0.0974632
-0.0972878
-0.0972239
-0.0972013
-0.0972016
-0.0972365
-0.0972955
-0.097359
-0.0974179
-0.0974699
-0.097514
-0.0975479
-0.0975679
-0.0975684
-0.0975452
-0.0974974
-0.0974255
-0.0973289
-0.097205
-0.0970508
-0.0968633
-0.0966403
-0.0963799
-0.0960799
-0.0957382
-0.0953523
-0.094919
-0.0944343
-0.0938941
-0.0932942
-0.0926302
-0.0918968
-0.0910878
-0.0901939
-0.0892018
-0.0880922
-0.0868381
-0.0854054
-0.0837552
-0.0818441
-0.0796261
-0.0770554
-0.0740913
-0.0707023
-0.066872
-0.0626029
-0.0579192
-0.0528661
-0.0475085
-0.0419287
-0.0362239
-0.0304994
-0.0248642
-0.0194212
-0.0142649
-0.00947373
-0.00511401
-0.0012296
0.00215363
0.00502947
0.00740019
0.00928477
0.0107079
0.0117086
0.0123248
0.012605
0.0125923
0.0123394
0.0118893
0.0112921
0.0105823
0.00980042
0.00896809
0.00811655
0.00725539
0.0064091
0.00557732
0.00478092
0.00401118
0.00328807
0.00259517
0.00195359
0.00133973
0.000777682
0.000233896
-0.0846644
-0.091139
-0.093648
-0.0944862
-0.0949273
-0.0953224
-0.0956872
-0.0959926
-0.096256
-0.0964851
-0.0966809
-0.096846
-0.0969835
-0.0970966
-0.0971874
-0.0972555
-0.0972977
-0.0973096
-0.0972862
-0.0972234
-0.0971186
-0.0969702
-0.0967769
-0.0965369
-0.0962479
-0.0959079
-0.0955149
-0.0950673
-0.0945632
-0.094
-0.093374
-0.0926812
-0.0919184
-0.0910824
-0.0901698
-0.0891768
-0.0880984
-0.0869285
-0.0856589
-0.0842781
-0.0827708
-0.0811172
-0.079294
-0.077275
-0.0750325
-0.0725386
-0.0697675
-0.066699
-0.0633205
-0.059631
-0.0556425
-0.0513818
-0.04689
-0.0422205
-0.0374387
-0.032621
-0.0278496
-0.0232086
-0.0187777
-0.0146283
-0.010817
-0.00738521
-0.00435638
-0.00174239
0.000458498
0.0022536
0.00366303
0.00471164
0.00543644
0.0058725
0.00606329
0.00604565
0.00586496
0.00555564
0.00516009
0.00470417
0.00422248
0.00372808
0.00324651
0.00277776
0.00234185
0.00192874
0.00155893
0.00121535
0.000923069
0.000655917
0.00044462
0.000251206
0.00011546
-1.49804e-05
-0.0786651
-0.0864479
-0.0904339
-0.0918601
-0.0922927
-0.0926249
-0.0931156
-0.0937221
-0.0943304
-0.0948657
-0.0953063
-0.0956615
-0.0959495
-0.0961845
-0.0963732
-0.0965154
-0.0966067
-0.0966408
-0.0966117
-0.0965143
-0.0963451
-0.0961022
-0.0957845
-0.0953917
-0.0949237
-0.0943804
-0.0937617
-0.0930675
-0.0922975
-0.091451
-0.0905268
-0.0895234
-0.0884396
-0.087274
-0.086025
-0.0846903
-0.0832668
-0.0817505
-0.0801359
-0.0784158
-0.0765809
-0.0746196
-0.0725187
-0.0702626
-0.0678349
-0.0652198
-0.062404
-0.0593788
-0.0561417
-0.052698
-0.0490627
-0.0452618
-0.0413324
-0.0373223
-0.0332869
-0.0292846
-0.0253763
-0.0216235
-0.0180851
-0.0148126
-0.0118455
-0.00921068
-0.00692242
-0.0049834
-0.00338184
-0.00210014
-0.00111482
-0.000400109
7.80131e-05
0.00035435
0.000470465
0.00046215
0.000367262
0.000211328
2.36357e-05
-0.00017899
-0.000371617
-0.000546884
-0.000687426
-0.000799117
-0.000869778
-0.000915653
-0.000921543
-0.000908532
-0.000851271
-0.000780538
-0.000659627
-0.000535794
-0.000354912
-0.000187405
-0.0684211
-0.0756249
-0.0809688
-0.0844476
-0.0865765
-0.088017
-0.0892178
-0.0903569
-0.0914463
-0.0924404
-0.0933018
-0.0940212
-0.0946089
-0.0950819
-0.0954532
-0.0957289
-0.0959091
-0.0959906
-0.0959692
-0.0958415
-0.0956053
-0.0952602
-0.0948073
-0.0942485
-0.0935866
-0.0928244
-0.0919647
-0.0910104
-0.0899641
-0.0888278
-0.0876034
-0.086292
-0.0848945
-0.0834113
-0.0818423
-0.080187
-0.0784446
-0.0766133
-0.074691
-0.0726744
-0.0705598
-0.0683425
-0.0660172
-0.0635781
-0.0610198
-0.058337
-0.0555255
-0.0525836
-0.0495134
-0.0463224
-0.0430249
-0.0396438
-0.0362126
-0.0327745
-0.0293794
-0.0260791
-0.0229227
-0.0199529
-0.017203
-0.0146985
-0.0124603
-0.0105085
-0.00885775
-0.00750643
-0.00642832
-0.00558501
-0.00494141
-0.00447209
-0.00415335
-0.00395675
-0.0038433
-0.00377577
-0.0037242
-0.00367547
-0.00362063
-0.00355694
-0.00347457
-0.00337085
-0.00323666
-0.00307671
-0.00288485
-0.0026721
-0.00242915
-0.00217328
-0.00188779
-0.00159833
-0.00127365
-0.000955558
-0.000588394
-0.000248941
-0.0631589
-0.0697771
-0.0752443
-0.0794539
-0.0825292
-0.0847814
-0.0865523
-0.0880809
-0.0894752
-0.0907526
-0.0918932
-0.0928767
-0.0936966
-0.0943587
-0.0948728
-0.0952465
-0.0954832
-0.0955825
-0.0955423
-0.0953603
-0.0950361
-0.0945707
-0.0939671
-0.0932295
-0.0923631
-0.0913737
-0.0902671
-0.0890491
-0.0877254
-0.0863011
-0.0847805
-0.0831671
-0.0814637
-0.0796725
-0.077795
-0.0758326
-0.0737865
-0.0716579
-0.069448
-0.0671578
-0.0647889
-0.0623426
-0.059821
-0.0572267
-0.0545631
-0.0518335
-0.0490418
-0.0461924
-0.043291
-0.0403453
-0.0373665
-0.0343717
-0.0313875
-0.0284524
-0.0256165
-0.0229345
-0.0204534
-0.0182
-0.0161753
-0.0143632
-0.0127531
-0.0113599
-0.0102117
-0.00931428
-0.00863097
-0.00809339
-0.00764248
-0.00725809
-0.00694358
-0.00669648
-0.00649258
-0.00629748
-0.00608309
-0.00583777
-0.00556249
-0.00526833
-0.00496416
-0.00465676
-0.00434431
-0.00402697
-0.00369916
-0.00336321
-0.00301355
-0.00265684
-0.00228449
-0.00190826
-0.00151059
-0.00111391
-0.000680408
-0.00026365
-0.0586147
-0.0648804
-0.0703355
-0.0748829
-0.0785283
-0.0814047
-0.083723
-0.0856837
-0.08742
-0.0889905
-0.0904029
-0.0916438
-0.0926995
-0.0935649
-0.0942418
-0.0947346
-0.0950467
-0.0951794
-0.0951326
-0.0949063
-0.0945019
-0.0939231
-0.093175
-0.0922646
-0.0911996
-0.0899886
-0.0886405
-0.0871644
-0.0855693
-0.0838635
-0.0820541
-0.0801471
-0.0781473
-0.0760586
-0.0738845
-0.0716283
-0.0692937
-0.0668847
-0.0644063
-0.0618642
-0.0592651
-0.0566164
-0.0539264
-0.0512049
-0.0484628
-0.045712
-0.042965
-0.0402331
-0.0375259
-0.0348506
-0.0322137
-0.0296225
-0.0270897
-0.0246393
-0.0223168
-0.020184
-0.0182972
-0.0166778
-0.0152879
-0.0140551
-0.0129293
-0.01192
-0.0110741
-0.0104193
-0.00993035
-0.00952532
-0.00911963
-0.00868604
-0.00825016
-0.00784411
-0.00747651
-0.00713496
-0.00680693
-0.0064792
-0.00613981
-0.00578585
-0.00542072
-0.00504997
-0.00467571
-0.00429962
-0.00392058
-0.00353967
-0.00315435
-0.0027663
-0.00237141
-0.00197295
-0.00156256
-0.00114682
-0.000704689
-0.000262459
-0.0550136
-0.0610737
-0.066506
-0.0712322
-0.0752285
-0.0785487
-0.0813144
-0.0836717
-0.0857418
-0.0875969
-0.0892631
-0.090738
-0.0920086
-0.0930632
-0.0938958
-0.0945048
-0.0948906
-0.0950537
-0.0949948
-0.0947155
-0.0942202
-0.0935161
-0.0926125
-0.0915198
-0.0902488
-0.0888111
-0.0872185
-0.0854833
-0.0836176
-0.0816325
-0.0795384
-0.0773438
-0.0750561
-0.0726815
-0.0702254
-0.0676935
-0.065092
-0.0624283
-0.0597115
-0.0569527
-0.0541644
-0.0513605
-0.0485553
-0.0457634
-0.0430008
-0.0402873
-0.0376444
-0.0350896
-0.0326329
-0.0302773
-0.0280222
-0.0258639
-0.0237979
-0.0218218
-0.0199615
-0.0182724
-0.0168215
-0.0156464
-0.0146868
-0.0138372
-0.0130252
-0.0122466
-0.0115284
-0.0108886
-0.010357
-0.00990958
-0.00949067
-0.00907677
-0.00868234
-0.00829171
-0.00789136
-0.00747991
-0.00705935
-0.00663556
-0.0062181
-0.00581335
-0.00542106
-0.00503912
-0.00466438
-0.00429272
-0.00391988
-0.00354376
-0.00316258
-0.00277604
-0.00238244
-0.00198242
-0.00157229
-0.00115205
-0.000713492
-0.000266528
-0.0521198
-0.0580735
-0.0634942
-0.068316
-0.0725185
-0.0761341
-0.0792397
-0.0819344
-0.0843118
-0.0864388
-0.0883484
-0.0900461
-0.0915215
-0.0927595
-0.0937471
-0.0944757
-0.0949405
-0.0951393
-0.0950714
-0.0947393
-0.0941497
-0.0933146
-0.0922495
-0.0909701
-0.0894916
-0.0878289
-0.0859974
-0.0840125
-0.0818897
-0.0796435
-0.0772873
-0.0748328
-0.0722898
-0.0696673
-0.0669731
-0.0642153
-0.0614031
-0.058547
-0.0556603
-0.0527594
-0.0498637
-0.0469947
-0.0441737
-0.0414174
-0.0387383
-0.0361597
-0.0337076
-0.0313981
-0.0292321
-0.0272
-0.0252927
-0.0234999
-0.0218144
-0.0202418
-0.0187799
-0.0174462
-0.0162781
-0.0152756
-0.014417
-0.0136651
-0.0129908
-0.0123958
-0.011887
-0.0114258
-0.0109245
-0.010352
-0.00974199
-0.00916279
-0.00863956
-0.00817643
-0.0077643
-0.00737701
-0.00699488
-0.00661001
-0.0062214
-0.00583085
-0.0054433
-0.00506062
-0.00468134
-0.0043035
-0.00392502
-0.00354436
-0.00315953
-0.00276981
-0.00237425
-0.00197223
-0.00156143
-0.00114112
-0.000710261
-0.000262025
-0.0497413
-0.055669
-0.0610909
-0.0659627
-0.0702849
-0.074096
-0.0774561
-0.0804329
-0.0830905
-0.0854796
-0.0876295
-0.0895483
-0.0912275
-0.0926497
-0.0937963
-0.0946517
-0.0952048
-0.0954491
-0.0953823
-0.0950073
-0.0943321
-0.0933727
-0.0921517
-0.0906919
-0.0890155
-0.0871446
-0.0851001
-0.0829022
-0.0805701
-0.0781213
-0.0755712
-0.0729335
-0.0702196
-0.06744
-0.0646041
-0.0617216
-0.0588032
-0.0558613
-0.0529115
-0.0499726
-0.0470682
-0.0442249
-0.0414715
-0.0388304
-0.0363164
-0.0339497
-0.0317434
-0.029695
-0.0277884
-0.0259947
-0.0242838
-0.0226514
-0.0211247
-0.0197499
-0.018573
-0.0176134
-0.0168301
-0.0160728
-0.0152334
-0.0143006
-0.0133464
-0.012495
-0.0117856
-0.0112026
-0.0106904
-0.0101946
-0.00969413
-0.00919849
-0.00872193
-0.00827846
-0.00785841
-0.00744933
-0.00704397
-0.0066406
-0.00624095
-0.0058466
-0.00545702
-0.00507183
-0.00468982
-0.00430917
-0.00392793
-0.0035445
-0.00315744
-0.00276571
-0.00236828
-0.00196391
-0.00155108
-0.00113091
-0.000705332
-0.000256175
-0.0482197
-0.0541121
-0.059499
-0.0643719
-0.0687551
-0.0726897
-0.0762262
-0.0794143
-0.0822965
-0.0849075
-0.0872677
-0.0893813
-0.0912387
-0.0928217
-0.0941084
-0.0950773
-0.0957114
-0.0959994
-0.0959374
-0.0955293
-0.0947868
-0.0937272
-0.0923727
-0.0907528
-0.0889003
-0.0868481
-0.0846266
-0.0822636
-0.0797828
-0.0772043
-0.074545
-0.0718183
-0.0690355
-0.066206
-0.0633385
-0.0604416
-0.0575246
-0.0545991
-0.0516792
-0.0487831
-0.0459339
-0.0431597
-0.0404949
-0.0379758
-0.0356412
-0.0335122
-0.0315873
-0.029838
-0.0282142
-0.0266585
-0.0250998
-0.0235095
-0.021903
-0.0203418
-0.01891
-0.0176825
-0.0166457
-0.0157449
-0.0149088
-0.0141002
-0.0133226
-0.0126022
-0.0119619
-0.0113915
-0.0108493
-0.0103115
-0.00977626
-0.00925758
-0.00876783
-0.00830853
-0.00787527
-0.00745949
-0.00705355
-0.00665295
-0.00625603
-0.00586273
-0.00547327
-0.00508726
-0.00470362
-0.00432088
-0.00393745
-0.00355185
-0.00316273
-0.00276895
-0.0023694
-0.00196285
-0.00154837
-0.00112774
-0.000702747
-0.000253545
-0.0473111
-0.053221
-0.0586082
-0.0634992
-0.0679337
-0.0719551
-0.0756081
-0.0789368
-0.0819793
-0.0847586
-0.0872831
-0.089549
-0.0915428
-0.0932443
-0.094631
-0.0956808
-0.0963758
-0.0967048
-0.0966643
-0.0962603
-0.0955072
-0.0944278
-0.0930503
-0.0914068
-0.089531
-0.0874564
-0.0852146
-0.0828345
-0.080341
-0.0777551
-0.075094
-0.0723717
-0.0695995
-0.0667866
-0.0639413
-0.0610714
-0.0581853
-0.0552928
-0.0524061
-0.0495403
-0.0467149
-0.0439534
-0.0412835
-0.0387346
-0.0363334
-0.0340974
-0.0320302
-0.0301202
-0.0283479
-0.0266641
-0.0250123
-0.0233934
-0.0218231
-0.020351
-0.0190334
-0.0178932
-0.0169125
-0.0160157
-0.015142
-0.0142771
-0.0134434
-0.0126818
-0.0120079
-0.0114059
-0.0108457
-0.0103052
-0.00977951
-0.00927436
-0.00879472
-0.00834111
-0.00790806
-0.007489
-0.00707902
-0.00667553
-0.0062775
-0.00588443
-0.00549572
-0.00511044
-0.00472733
-0.00434488
-0.00396154
-0.00357587
-0.0031865
-0.00279226
-0.00239198
-0.00198454
-0.00156904
-0.0011457
-0.000714206
-0.000258845
)
;

boundaryField
{
    fixedWalls
    {
        type            zeroGradient;
    }
    inflowWall
    {
        type            zeroGradient;
    }
    outflowWall
    {
        type            fixedValue;
        value           uniform 0;
    }
    frontAndBack
    {
        type            empty;
    }
}


// ************************************************************************* //
