/*--------------------------------*- C++ -*----------------------------------*\
| =========                 |                                                 |
| \\      /  F ield         | OpenFOAM: The Open Source CFD Toolbox           |
|  \\    /   O peration     | Version:  2306                                  |
|   \\  /    A nd           | Website:  www.openfoam.com                      |
|    \\/     M anipulation  |                                                 |
\*---------------------------------------------------------------------------*/
FoamFile
{
    version     2.0;
    format      ascii;
    arch        "LSB;label=32;scalar=64";
    class       volScalarField;
    location    "0.41";
    object      p;
}
// * * * * * * * * * * * * * * * * * * * * * * * * * * * * * * * * * * * * * //

dimensions      [0 2 -2 0 0 0 0];

internalField   nonuniform List<scalar> 
475
(
3.10561
2.38538
1.91904
1.57973
1.21457
2.5263
2.23345
1.9151
1.62935
1.36567
2.42081
2.22826
1.96241
1.70594
1.48612
2.5648
2.27871
1.98433
1.73984
1.54018
3.15591
2.44205
2.00678
1.73622
1.52641
0.991857
1.01109
1.05093
1.09423
1.12931
1.1493
1.15352
1.14352
1.12237
1.09347
1.05984
1.02379
0.986944
0.950338
0.914535
0.879782
0.846121
0.813477
0.781715
0.750678
0.720212
0.690177
0.660455
0.630948
0.601582
0.572298
0.543057
0.513829
0.484596
0.455347
0.426077
0.396782
0.367465
0.338126
0.308769
0.279396
0.250009
0.220613
0.191209
0.161799
0.132386
0.102969
0.0735517
0.0441331
0.014713
0.97537
1.00017
1.03741
1.07707
1.10914
1.12839
1.13341
1.12537
1.10692
1.08102
1.05031
1.0169
0.982289
0.947452
0.912977
0.879167
0.846131
0.813867
0.782305
0.751343
0.72087
0.690779
0.660976
0.631381
0.601927
0.572564
0.543253
0.513968
0.484689
0.455404
0.426107
0.396794
0.367463
0.338116
0.308754
0.279379
0.249993
0.220598
0.191195
0.161788
0.132377
0.102963
0.0735466
0.0441297
0.0147119
0.917516
0.976684
1.0234
1.067
1.10079
1.12004
1.12438
1.11587
1.09748
1.07219
1.04251
1.01036
0.977077
0.943499
0.910133
0.877242
0.844924
0.813199
0.782021
0.751316
0.721003
0.690999
0.661233
0.631641
0.602169
0.572776
0.543432
0.514112
0.484801
0.455488
0.426167
0.396834
0.367488
0.33813
0.308759
0.279378
0.249989
0.220592
0.191189
0.161781
0.132371
0.102958
0.0735428
0.0441272
0.0147111
0.836641
0.944461
1.01181
1.06204
1.09718
1.11491
1.1167
1.10605
1.08653
1.06113
1.03217
1.00127
0.969475
0.937438
0.905514
0.873882
0.842605
0.811701
0.781146
0.750891
0.720886
0.691081
0.661431
0.631894
0.602437
0.573034
0.543664
0.514311
0.484964
0.455617
0.426265
0.396906
0.367538
0.338162
0.308778
0.279388
0.249991
0.220589
0.191184
0.161775
0.132364
0.102952
0.0735383
0.044124
0.0147096
0.563005
0.893774
1.01348
1.06741
1.09807
1.11023
1.10705
1.09299
1.07187
1.04643
1.01851
0.989303
0.95949
0.929456
0.89939
0.86938
0.839452
0.809624
0.779888
0.750233
0.720647
0.691118
0.661634
0.632185
0.602761
0.573354
0.543957
0.514566
0.485177
0.455788
0.426397
0.397004
0.367608
0.338209
0.308807
0.279403
0.249996
0.220588
0.191179
0.161768
0.132357
0.102945
0.0735325
0.0441199
0.0147072
0.931572
1.00643
1.0718
1.09917
1.10917
1.10758
1.0961
1.07759
1.05483
1.02968
1.00325
0.976123
0.948605
0.920812
0.892783
0.864531
0.83605
0.807375
0.778518
0.749508
0.720375
0.691146
0.661846
0.632495
0.603108
0.573699
0.544275
0.514844
0.48541
0.455976
0.426543
0.397113
0.367686
0.338261
0.30884
0.279421
0.250003
0.220588
0.191174
0.161761
0.132349
0.102937
0.0735262
0.0441153
0.0147045
1.16866
1.12997
1.13604
1.13219
1.11977
1.10326
1.08346
1.06121
1.03762
1.0134
0.988829
0.963953
0.938726
0.913068
0.886919
0.860244
0.833081
0.805428
0.777345
0.748903
0.720167
0.691201
0.66206
0.632791
0.603434
0.574019
0.544569
0.5151
0.485623
0.456147
0.426676
0.397212
0.367756
0.338308
0.308869
0.279436
0.250009
0.220587
0.191169
0.161754
0.132341
0.10293
0.0735205
0.0441112
0.0147022
1.31735
1.2291
1.18537
1.15185
1.12147
1.09423
1.06916
1.04535
1.02232
0.999733
0.977226
0.954476
0.931235
0.907329
0.882663
0.857218
0.831014
0.804107
0.776587
0.74855
0.720093
0.691306
0.662269
0.633051
0.603706
0.574279
0.544802
0.515299
0.485787
0.456276
0.426774
0.397284
0.367806
0.338341
0.308888
0.279445
0.250011
0.220585
0.191164
0.161748
0.132335
0.102925
0.073516
0.0441081
0.0147007
1.38108
1.27066
1.1984
1.14724
1.10828
1.07754
1.05212
1.02976
1.009
0.988851
0.968635
0.947895
0.92634
0.903808
0.880234
0.855621
0.830045
0.8036
0.776405
0.748584
0.72026
0.691544
0.662535
0.633315
0.60395
0.574492
0.544981
0.515444
0.485899
0.45636
0.426834
0.397324
0.367831
0.338354
0.308893
0.279445
0.250007
0.220579
0.191157
0.161741
0.132329
0.10292
0.0735122
0.0441056
0.0146999
1.35922
1.23822
1.15797
1.10567
1.07056
1.04569
1.02647
1.00989
0.994105
0.97804
0.961066
0.942833
0.923171
0.902028
0.879444
0.855512
0.83037
0.804176
0.7771
0.749305
0.720946
0.692161
0.663064
0.633751
0.604297
0.574759
0.545178
0.515583
0.485992
0.456418
0.426865
0.397335
0.367829
0.338344
0.308878
0.279428
0.24999
0.220563
0.191144
0.16173
0.13232
0.102913
0.0735071
0.0441021
0.0146987
)
;

boundaryField
{
    fixedWalls
    {
        type            zeroGradient;
    }
    inflowWall
    {
        type            zeroGradient;
    }
    outflowWall
    {
        type            fixedValue;
        value           uniform 0;
    }
    frontAndBack
    {
        type            empty;
    }
}


// ************************************************************************* //
