/*--------------------------------*- C++ -*----------------------------------*\
| =========                 |                                                 |
| \\      /  F ield         | OpenFOAM: The Open Source CFD Toolbox           |
|  \\    /   O peration     | Version:  2306                                  |
|   \\  /    A nd           | Website:  www.openfoam.com                      |
|    \\/     M anipulation  |                                                 |
\*---------------------------------------------------------------------------*/
FoamFile
{
    version     2.0;
    format      ascii;
    arch        "LSB;label=32;scalar=64";
    class       surfaceScalarField;
    location    "0.68";
    object      phi;
}
// * * * * * * * * * * * * * * * * * * * * * * * * * * * * * * * * * * * * * //

dimensions      [0 3 -1 0 0 0 0];

oriented        oriented;

internalField   nonuniform List<scalar> 
94400
(
7.3514e-06
2.6486e-06
5.10551e-06
2.24589e-06
3.71254e-06
1.39297e-06
2.84757e-06
8.6497e-07
2.29182e-06
5.55758e-07
1.91981e-06
3.72004e-07
1.65897e-06
2.60842e-07
1.46775e-06
1.91221e-07
1.32225e-06
1.45501e-07
1.20826e-06
1.13987e-07
1.11694e-06
9.13167e-08
1.04252e-06
7.442e-08
9.81067e-07
6.14574e-08
9.29791e-07
5.12764e-08
8.86666e-07
4.31244e-08
8.50176e-07
3.64907e-08
8.19158e-07
3.10179e-08
7.92709e-07
2.64489e-08
7.70114e-07
2.25945e-08
7.50801e-07
1.93128e-08
7.34307e-07
1.6495e-08
7.2025e-07
1.40568e-08
7.08318e-07
1.19318e-08
6.98251e-07
1.00665e-08
6.89833e-07
8.41792e-09
6.82883e-07
6.95032e-09
6.77249e-07
5.63397e-09
6.72806e-07
4.44357e-09
6.69448e-07
3.35722e-09
6.67093e-07
2.35557e-09
6.65672e-07
1.421e-09
6.65135e-07
5.3704e-10
6.65447e-07
-3.12406e-10
6.66591e-07
-1.14375e-09
6.68566e-07
-1.97469e-09
6.71391e-07
-2.82542e-09
6.75112e-07
-3.7205e-09
6.79803e-07
-4.69164e-09
6.85586e-07
-5.78243e-09
6.92642e-07
-7.05683e-09
7.01258e-07
-8.61552e-09
7.11888e-07
-1.06299e-08
7.25306e-07
-1.34183e-08
7.42932e-07
-1.76261e-08
7.67598e-07
-2.46653e-08
8.05375e-07
-3.77775e-08
8.70013e-07
-6.46382e-08
9.94537e-07
-1.24524e-07
1.26458e-06
-2.70041e-07
-6.37069e-07
1.90165e-06
1.01831e-05
2.46545e-06
9.21641e-06
3.21262e-06
7.94626e-06
2.66312e-06
6.79703e-06
2.01419e-06
5.86109e-06
1.4917e-06
5.12472e-06
1.10838e-06
4.5484e-06
8.37158e-07
4.09392e-06
6.45707e-07
3.73105e-06
5.08372e-07
3.43743e-06
4.076e-07
3.19686e-06
3.31889e-07
2.99757e-06
2.73715e-07
2.83092e-06
2.28102e-07
2.69051e-06
1.91694e-07
2.57145e-06
1.62178e-07
2.47002e-06
1.3792e-07
2.3833e-06
1.17744e-07
2.30896e-06
1.00785e-07
2.24516e-06
8.63959e-08
2.19039e-06
7.40823e-08
2.14342e-06
6.34629e-08
2.10324e-06
5.42381e-08
2.069e-06
4.61696e-08
2.04e-06
3.90649e-08
2.01566e-06
3.27666e-08
1.99546e-06
2.71442e-08
1.97901e-06
2.20877e-08
1.96595e-06
1.75029e-08
1.956e-06
1.33077e-08
1.94892e-06
9.42841e-09
1.94455e-06
5.79766e-09
1.94273e-06
2.35122e-09
1.9434e-06
-9.74577e-10
1.9465e-06
-4.24604e-09
1.95206e-06
-7.53619e-09
1.96016e-06
-1.09302e-08
1.97098e-06
-1.45338e-08
1.98477e-06
-1.84857e-08
2.00197e-06
-2.29782e-08
2.0232e-06
-2.82927e-08
2.04945e-06
-3.48616e-08
2.0822e-06
-4.33835e-08
2.12383e-06
-5.5044e-08
2.17815e-06
-7.19494e-08
2.25148e-06
-9.79968e-08
2.35428e-06
-1.40575e-07
2.50339e-06
-2.13747e-07
2.72321e-06
-3.44343e-07
3.03548e-06
-5.82311e-07
-9.95566e-07
3.39398e-06
1.05345e-05
1.93093e-06
1.04951e-05
3.25202e-06
9.90361e-06
3.25464e-06
9.09169e-06
2.82611e-06
8.26037e-06
2.32302e-06
7.49872e-06
1.87002e-06
6.83568e-06
1.5002e-06
6.27166e-06
1.20972e-06
5.79603e-06
9.84006e-07
5.39544e-06
8.08192e-07
5.05726e-06
6.70062e-07
4.77068e-06
5.60294e-07
4.5268e-06
4.71988e-07
4.3184e-06
4.00086e-07
4.13972e-06
3.40867e-07
3.98606e-06
2.91578e-07
3.85365e-06
2.50155e-07
3.7394e-06
2.15036e-07
3.64077e-06
1.85019e-07
3.55568e-06
1.59172e-07
3.48238e-06
1.36762e-07
3.41942e-06
1.17204e-07
3.36556e-06
1.00026e-07
3.31978e-06
8.48448e-08
3.28121e-06
7.13423e-08
3.2491e-06
5.92525e-08
3.22284e-06
4.83493e-08
3.2019e-06
3.84374e-08
3.18586e-06
2.9345e-08
3.17438e-06
2.09169e-08
3.16716e-06
1.30095e-08
3.16403e-06
5.48457e-09
3.16485e-06
-1.79601e-09
3.16958e-06
-8.97752e-09
3.17827e-06
-1.6221e-08
3.19105e-06
-2.37154e-08
3.20821e-06
-3.16945e-08
3.23019e-06
-4.04634e-08
3.25765e-06
-5.04396e-08
3.29158e-06
-6.22187e-08
3.3334e-06
-7.66836e-08
3.38521e-06
-9.51891e-08
3.45004e-06
-1.19876e-07
3.5323e-06
-1.54207e-07
3.63818e-06
-2.03879e-07
3.77585e-06
-2.78251e-07
3.95445e-06
-3.92341e-07
4.17916e-06
-5.69053e-07
4.43611e-06
-8.39264e-07
-1.22555e-06
4.6661e-06
1.04653e-05
1.46561e-06
1.07771e-05
2.94026e-06
1.06758e-05
3.35591e-06
1.02725e-05
3.22939e-06
9.71463e-06
2.88093e-06
9.108e-06
2.47665e-06
8.51515e-06
2.09306e-06
7.9669e-06
1.75797e-06
7.47487e-06
1.47604e-06
7.04039e-06
1.24267e-06
6.66001e-06
1.05045e-06
6.32836e-06
8.91942e-07
6.0397e-06
7.60651e-07
5.78856e-06
6.51226e-07
5.57003e-06
5.59394e-07
5.37983e-06
4.81776e-07
5.21428e-06
4.15713e-07
5.07021e-06
3.59105e-07
4.94494e-06
3.10288e-07
4.83618e-06
2.6793e-07
4.74198e-06
2.30963e-07
4.66067e-06
1.98516e-07
4.59082e-06
1.69877e-07
4.5312e-06
1.44455e-07
4.48079e-06
1.21756e-07
4.43868e-06
1.0136e-07
4.40412e-06
8.29082e-08
4.37648e-06
6.60853e-08
4.35521e-06
5.0612e-08
4.33989e-06
3.6234e-08
4.33019e-06
2.27132e-08
4.32585e-06
9.81948e-09
4.32674e-06
-2.67943e-09
4.33279e-06
-1.50284e-08
4.34407e-06
-2.74991e-08
4.36076e-06
-4.04086e-08
4.38321e-06
-5.41463e-08
4.41196e-06
-6.92117e-08
4.44779e-06
-8.62731e-08
4.49183e-06
-1.06254e-07
4.54562e-06
-1.30472e-07
4.61127e-06
-1.60841e-07
4.69159e-06
-2.00199e-07
4.79016e-06
-2.5278e-07
4.91118e-06
-3.2489e-07
5.05864e-06
-4.25716e-07
5.23426e-06
-5.67965e-07
5.43271e-06
-7.67502e-07
5.63323e-06
-1.03978e-06
-1.38674e-06
5.79442e-06
1.0342e-05
1.12359e-06
1.07373e-05
2.54503e-06
1.09003e-05
3.19284e-06
1.08068e-05
3.32292e-06
1.05226e-05
3.16516e-06
1.01251e-05
2.87415e-06
9.67673e-06
2.54137e-06
9.21983e-06
2.21487e-06
8.77954e-06
1.91633e-06
8.36916e-06
1.65305e-06
7.99442e-06
1.42518e-06
7.65664e-06
1.22972e-06
7.3547e-06
1.06259e-06
7.08627e-06
9.19654e-07
6.84854e-06
7.97129e-07
6.63857e-06
6.9174e-07
6.45356e-06
6.00721e-07
6.2909e-06
5.21764e-07
6.14823e-06
4.52961e-07
6.02343e-06
3.92728e-07
5.91464e-06
3.39756e-07
5.82021e-06
2.92952e-07
5.73868e-06
2.51399e-07
5.66881e-06
2.14326e-07
5.6095e-06
1.81073e-07
5.55978e-06
1.51074e-07
5.51885e-06
1.23837e-07
5.48602e-06
9.89236e-08
5.46068e-06
7.59431e-08
5.44238e-06
5.45343e-08
5.43074e-06
3.43568e-08
5.42548e-06
1.50786e-08
5.42644e-06
-3.63608e-09
5.43355e-06
-2.2142e-08
5.44688e-06
-4.08313e-08
5.46663e-06
-6.01578e-08
5.49316e-06
-8.06703e-08
5.52701e-06
-1.0306e-07
5.56896e-06
-1.28224e-07
5.62007e-06
-1.57365e-07
5.68172e-06
-1.92124e-07
5.75565e-06
-2.34773e-07
5.84393e-06
-2.88476e-07
5.94877e-06
-3.57624e-07
6.07208e-06
-4.482e-07
6.2144e-06
-5.68031e-07
6.37299e-06
-7.26558e-07
6.53893e-06
-9.33437e-07
6.69391e-06
-1.19477e-06
-1.50492e-06
6.81209e-06
1.02416e-05
8.8195e-07
1.06171e-05
2.1696e-06
1.08951e-05
2.91479e-06
1.09957e-05
3.22238e-06
1.09248e-05
3.23599e-06
1.07228e-05
3.07614e-06
1.04357e-05
2.82856e-06
1.01024e-05
2.54811e-06
9.75201e-06
2.26673e-06
9.40386e-06
2.0012e-06
9.07001e-06
1.75903e-06
8.75727e-06
1.54246e-06
8.46894e-06
1.35092e-06
8.2061e-06
1.18249e-06
7.96846e-06
1.03477e-06
7.75496e-06
9.05241e-07
7.56413e-06
7.91555e-07
7.39431e-06
6.91579e-07
7.24384e-06
6.03436e-07
7.11107e-06
5.25499e-07
6.99446e-06
4.56361e-07
6.8926e-06
3.94813e-07
6.80419e-06
3.39811e-07
6.72806e-06
2.90454e-07
6.66317e-06
2.45958e-07
6.60861e-06
2.05635e-07
6.56357e-06
1.68876e-07
6.52736e-06
1.35134e-07
6.4994e-06
1.03912e-07
6.47918e-06
7.47456e-08
6.46635e-06
4.71946e-08
6.4606e-06
2.08255e-08
6.46177e-06
-4.80165e-09
6.46977e-06
-3.01508e-08
6.48467e-06
-5.5732e-08
6.50665e-06
-8.21288e-08
6.53601e-06
-1.10035e-07
6.57325e-06
-1.40304e-07
6.61905e-06
-1.74015e-07
6.67424e-06
-2.1256e-07
6.73988e-06
-2.57768e-07
6.81716e-06
-3.12045e-07
6.90724e-06
-3.7856e-07
7.01103e-06
-4.61418e-07
7.12861e-06
-5.65776e-07
7.25831e-06
-6.97734e-07
7.39548e-06
-8.63724e-07
7.53103e-06
-1.06899e-06
7.65097e-06
-1.31471e-06
-1.5935e-06
7.73956e-06
1.01727e-05
7.09202e-07
1.0498e-05
1.84435e-06
1.08084e-05
2.60442e-06
1.10139e-05
3.0169e-06
1.10882e-05
3.16167e-06
1.10418e-05
3.12254e-06
1.09008e-05
2.96958e-06
1.06941e-05
2.75472e-06
1.04476e-05
2.51326e-06
1.01814e-05
2.26743e-06
9.91021e-06
2.03021e-06
9.64418e-06
1.80849e-06
9.38982e-06
1.60528e-06
9.15104e-06
1.42128e-06
8.9299e-06
1.2559e-06
8.72724e-06
1.1079e-06
8.54307e-06
9.75727e-07
8.37689e-06
8.57762e-07
8.22789e-06
7.52434e-07
8.09511e-06
6.58279e-07
7.97751e-06
5.7396e-07
7.87405e-06
4.98275e-07
7.78371e-06
4.3015e-07
7.70554e-06
3.68628e-07
7.63864e-06
3.12852e-07
7.58222e-06
2.62056e-07
7.53555e-06
2.15545e-07
7.498e-06
1.72686e-07
7.46902e-06
1.32893e-07
7.44815e-06
9.56134e-08
7.43503e-06
6.0316e-08
7.42938e-06
2.64753e-08
7.43102e-06
-6.44374e-09
7.43988e-06
-3.90047e-08
7.45597e-06
-7.18226e-08
7.47943e-06
-1.05592e-07
7.51052e-06
-1.41124e-07
7.54961e-06
-1.79394e-07
7.59719e-06
-2.21596e-07
7.65385e-06
-2.69225e-07
7.72025e-06
-3.2416e-07
7.79697e-06
-3.88767e-07
7.8844e-06
-4.65993e-07
7.98241e-06
-5.59423e-07
8.08986e-06
-6.73226e-07
8.204e-06
-8.11875e-07
8.31974e-06
-9.79463e-07
8.42918e-06
-1.17844e-06
8.52216e-06
-1.40768e-06
-1.66023e-06
8.58888e-06
1.01274e-05
5.81814e-07
1.04004e-05
1.57136e-06
1.07032e-05
2.30156e-06
1.09558e-05
2.76438e-06
1.1119e-05
2.99843e-06
1.11845e-05
3.057e-06
1.11619e-05
2.99224e-06
1.10685e-05
2.84809e-06
1.09236e-05
2.65815e-06
1.07447e-05
2.44634e-06
1.05462e-05
2.22869e-06
1.03394e-05
2.01536e-06
1.01323e-05
1.81231e-06
9.9309e-06
1.62272e-06
9.73889e-06
1.44791e-06
9.55874e-06
1.28806e-06
9.3918e-06
1.14266e-06
9.23871e-06
1.01085e-06
9.09957e-06
8.91572e-07
8.97416e-06
7.83692e-07
8.86202e-06
6.86099e-07
8.76258e-06
5.9772e-07
8.67518e-06
5.17548e-07
8.59916e-06
4.44648e-07
8.53385e-06
3.78157e-07
8.47863e-06
3.17275e-07
8.43291e-06
2.61264e-07
8.39616e-06
2.09436e-07
8.36791e-06
1.61142e-07
8.34777e-06
1.15759e-07
8.3354e-06
7.26853e-08
8.33056e-06
3.13182e-08
8.33307e-06
-8.95665e-09
8.34285e-06
-4.87851e-08
8.35989e-06
-8.88668e-08
8.38428e-06
-1.29982e-07
8.41618e-06
-1.73025e-07
8.45584e-06
-2.19045e-07
8.50353e-06
-2.69293e-07
8.55959e-06
-3.25281e-07
8.62427e-06
-3.88838e-07
8.69767e-06
-4.62166e-07
8.77955e-06
-5.47872e-07
8.86906e-06
-6.48941e-07
8.96444e-06
-7.68597e-07
9.06253e-06
-9.09974e-07
9.15858e-06
-1.07551e-06
9.24616e-06
-1.26601e-06
9.31794e-06
-1.47946e-06
-1.70992e-06
9.36763e-06
1.00972e-05
4.84623e-07
1.03247e-05
1.34385e-06
1.06037e-05
2.02255e-06
1.08693e-05
2.49875e-06
1.10812e-05
2.7866e-06
1.12211e-05
2.91706e-06
1.12871e-05
2.92622e-06
1.12868e-05
2.84841e-06
1.12322e-05
2.71276e-06
1.11364e-05
2.54208e-06
1.10119e-05
2.35329e-06
1.08689e-05
2.15827e-06
1.07162e-05
1.96504e-06
1.05603e-05
1.77867e-06
1.0406e-05
1.60218e-06
1.02569e-05
1.43714e-06
1.01154e-05
1.28415e-06
9.98312e-06
1.14317e-06
9.86091e-06
1.01378e-06
9.74927e-06
8.9533e-07
9.64835e-06
7.87023e-07
9.55804e-06
6.88024e-07
9.47811e-06
5.97476e-07
9.40822e-06
5.14543e-07
9.34796e-06
4.38411e-07
9.29693e-06
3.68305e-07
9.25472e-06
3.03482e-07
9.22092e-06
2.43233e-07
9.19519e-06
1.86876e-07
9.1772e-06
1.33747e-07
9.16669e-06
8.31914e-08
9.16346e-06
3.45527e-08
9.16734e-06
-1.28426e-08
9.17826e-06
-5.97013e-08
9.19618e-06
-1.06783e-07
9.22112e-06
-1.54925e-07
9.25316e-06
-2.0507e-07
9.29242e-06
-2.58297e-07
9.33898e-06
-3.1586e-07
9.39293e-06
-3.79225e-07
9.45419e-06
-4.50102e-07
9.52249e-06
-5.30463e-07
9.59715e-06
-6.22533e-07
9.67692e-06
-7.28716e-07
9.75975e-06
-8.51424e-07
9.84255e-06
-9.92775e-07
9.92115e-06
-1.1541e-06
9.99045e-06
-1.33532e-06
1.00452e-05
-1.53417e-06
-1.74582e-06
1.00811e-05
1.00765e-05
4.08153e-07
1.02668e-05
1.15354e-06
1.05172e-05
1.7721e-06
1.07777e-05
2.2383e-06
1.10114e-05
2.55283e-06
1.11969e-05
2.73157e-06
1.13253e-05
2.79785e-06
1.13968e-05
2.77691e-06
1.14172e-05
2.69231e-06
1.13951e-05
2.5642e-06
1.13397e-05
2.4087e-06
1.12598e-05
2.23816e-06
1.11632e-05
2.06161e-06
1.10565e-05
1.88541e-06
1.09448e-05
1.71385e-06
1.08323e-05
1.54966e-06
1.0722e-05
1.39444e-06
1.06162e-05
1.24899e-06
1.05164e-05
1.11356e-06
1.04237e-05
9.87997e-07
1.03388e-05
8.71919e-07
1.02621e-05
7.64782e-07
1.01936e-05
6.65953e-07
1.01334e-05
5.74746e-07
1.00814e-05
4.90456e-07
1.00373e-05
4.12372e-07
1.0001e-05
3.39791e-07
9.97221e-06
2.72016e-07
9.95072e-06
2.08363e-07
9.93631e-06
1.48152e-07
9.9288e-06
9.0704e-08
9.92803e-06
3.53294e-08
9.93386e-06
-1.8681e-08
9.94623e-06
-7.20708e-08
9.96508e-06
-1.25635e-07
9.9904e-06
-1.80238e-07
1.00222e-05
-2.36838e-07
1.00604e-05
-2.96509e-07
1.0105e-05
-3.60465e-07
1.01558e-05
-4.30082e-07
1.02126e-05
-5.06912e-07
1.02749e-05
-5.92674e-07
1.03415e-05
-6.89217e-07
1.04113e-05
-7.98432e-07
1.04819e-05
-9.22082e-07
1.05507e-05
-1.06155e-06
1.0614e-05
-1.21746e-06
1.0668e-05
-1.38926e-06
1.07086e-05
-1.57482e-06
-1.7702e-06
1.0733e-05
1.00617e-05
3.46405e-07
1.02223e-05
9.93025e-07
1.04446e-05
1.54975e-06
1.06909e-05
1.992e-06
1.09301e-05
2.31369e-06
1.11405e-05
2.52115e-06
1.131e-05
2.62833e-06
1.14341e-05
2.65277e-06
1.15139e-05
2.61258e-06
1.15536e-05
2.5245e-06
1.15593e-05
2.40294e-06
1.15378e-05
2.2597e-06
1.14954e-05
2.10399e-06
1.1438e-05
1.9428e-06
1.13706e-05
1.78124e-06
1.12974e-05
1.6229e-06
1.12217e-05
1.47017e-06
1.11461e-05
1.3246e-06
1.10726e-05
1.18702e-06
1.10028e-05
1.05783e-06
1.09376e-05
9.37048e-07
1.0878e-05
8.24459e-07
1.08242e-05
7.19687e-07
1.07767e-05
6.22241e-07
1.07356e-05
5.31559e-07
1.0701e-05
4.47035e-07
1.06727e-05
3.68035e-07
1.06508e-05
2.93909e-07
1.06352e-05
2.23999e-07
1.06257e-05
1.57634e-07
1.06223e-05
9.41333e-08
1.06248e-05
3.28005e-08
1.06332e-05
-2.70873e-08
1.06474e-05
-8.6287e-08
1.06674e-05
-1.45604e-07
1.06931e-05
-2.05904e-07
1.07244e-05
-2.68132e-07
1.07612e-05
-3.33327e-07
1.08033e-05
-4.02635e-07
1.08506e-05
-4.77318e-07
1.09024e-05
-5.58751e-07
1.09582e-05
-6.48402e-07
1.10167e-05
-7.47782e-07
1.10766e-05
-8.58351e-07
1.11359e-05
-9.81376e-07
1.11921e-05
-1.11772e-06
1.12422e-05
-1.26757e-06
1.12831e-05
-1.43019e-06
1.1312e-05
-1.60365e-06
-1.78478e-06
1.13266e-05
1.00509e-05
2.9546e-07
1.01877e-05
8.56301e-07
1.03845e-05
1.35294e-06
1.0613e-05
1.76347e-06
1.08478e-05
2.0789e-06
1.10691e-05
2.29983e-06
1.12638e-05
2.43368e-06
1.14246e-05
2.49198e-06
1.15491e-05
2.48802e-06
1.16385e-05
2.43508e-06
1.16961e-05
2.34542e-06
1.17261e-05
2.22964e-06
1.17335e-05
2.09656e-06
1.17231e-05
1.95325e-06
1.16992e-05
1.80518e-06
1.16656e-05
1.65644e-06
1.16258e-05
1.51004e-06
1.15823e-05
1.36805e-06
1.15375e-05
1.23186e-06
1.1493e-05
1.10231e-06
1.14502e-05
9.79798e-07
1.14102e-05
8.64456e-07
1.13738e-05
7.56165e-07
1.13413e-05
6.54648e-07
1.13134e-05
5.59509e-07
1.12902e-05
4.70271e-07
1.12718e-05
3.86395e-07
1.12584e-05
3.07302e-07
1.125e-05
2.32381e-07
1.12467e-05
1.60996e-07
1.12483e-05
9.2487e-08
1.12549e-05
2.61702e-08
1.12665e-05
-3.86681e-08
1.1283e-05
-1.02777e-07
1.13044e-05
-1.66949e-07
1.13305e-05
-2.3203e-07
1.13613e-05
-2.9893e-07
1.13966e-05
-3.68629e-07
1.14361e-05
-4.42187e-07
1.14796e-05
-5.20739e-07
1.15263e-05
-6.05485e-07
1.15755e-05
-6.97659e-07
1.16262e-05
-7.98479e-07
1.16769e-05
-9.09062e-07
1.17259e-05
-1.0303e-06
1.17708e-05
-1.16269e-06
1.18095e-05
-1.30619e-06
1.18393e-05
-1.45999e-06
1.1858e-05
-1.62241e-06
-1.79088e-06
1.18641e-05
1.00428e-05
2.52668e-07
1.01605e-05
7.38641e-07
1.03349e-05
1.17851e-06
1.05449e-05
1.55349e-06
1.077e-05
1.85376e-06
1.09931e-05
2.07672e-06
1.12013e-05
2.22548e-06
1.13862e-05
2.30711e-06
1.15433e-05
2.33095e-06
1.16712e-05
2.30713e-06
1.1771e-05
2.24564e-06
1.1845e-05
2.15564e-06
1.18964e-05
2.04512e-06
1.19289e-05
1.92083e-06
1.19458e-05
1.78823e-06
1.19506e-05
1.65166e-06
1.19462e-05
1.51443e-06
1.19352e-05
1.37901e-06
1.19199e-05
1.24718e-06
1.19021e-05
1.12014e-06
1.18832e-05
9.98649e-07
1.18646e-05
8.83116e-07
1.18471e-05
7.7368e-07
1.18314e-05
6.70274e-07
1.18183e-05
5.72675e-07
1.1808e-05
4.80544e-07
1.18009e-05
3.93453e-07
1.17973e-05
3.1091e-07
1.17973e-05
2.32369e-07
1.18011e-05
1.57247e-07
1.18087e-05
8.49234e-08
1.18201e-05
1.47449e-08
1.18354e-05
-5.39743e-08
1.18546e-05
-1.21956e-07
1.18776e-05
-1.89963e-07
1.19044e-05
-2.58802e-07
1.19348e-05
-3.2933e-07
1.19686e-05
-4.02456e-07
1.20055e-05
-4.79142e-07
1.20452e-05
-5.60393e-07
1.20869e-05
-6.47243e-07
1.213e-05
-7.40718e-07
1.21733e-05
-8.41792e-07
1.22156e-05
-9.51307e-07
1.22551e-05
-1.06988e-06
1.22902e-05
-1.19779e-06
1.23189e-05
-1.33482e-06
1.23391e-05
-1.48019e-06
1.23491e-05
-1.63245e-06
-1.78954e-06
1.23478e-05
1.00365e-05
2.16168e-07
1.01388e-05
6.36361e-07
1.02939e-05
1.02334e-06
1.04861e-05
1.36131e-06
1.06991e-05
1.64075e-06
1.09184e-05
1.85744e-06
1.11321e-05
2.01178e-06
1.13315e-05
2.10767e-06
1.15111e-05
2.15136e-06
1.16679e-05
2.15034e-06
1.18011e-05
2.11246e-06
1.19114e-05
2.04534e-06
1.20005e-05
1.95598e-06
1.20708e-05
1.85051e-06
1.21249e-05
1.73415e-06
1.21654e-05
1.61117e-06
1.21948e-05
1.48502e-06
1.22155e-05
1.35837e-06
1.22294e-05
1.23326e-06
1.22384e-05
1.11115e-06
1.2244e-05
9.93074e-07
1.22474e-05
8.79674e-07
1.22498e-05
7.71313e-07
1.22519e-05
6.68115e-07
1.22546e-05
5.7002e-07
1.22583e-05
4.76828e-07
1.22635e-05
3.88225e-07
1.22706e-05
3.03814e-07
1.22799e-05
2.23127e-07
1.22915e-05
1.45643e-07
1.23056e-05
7.07953e-08
1.23224e-05
-2.02346e-09
1.23419e-05
-7.3457e-08
1.23641e-05
-1.44185e-07
1.2389e-05
-2.14925e-07
1.24167e-05
-2.86432e-07
1.24468e-05
-3.59497e-07
1.24793e-05
-4.3495e-07
1.25138e-05
-5.13651e-07
1.25499e-05
-5.96478e-07
1.2587e-05
-6.84313e-07
1.26243e-05
-7.78001e-07
1.26608e-05
-8.78314e-07
1.26954e-05
-9.85885e-07
1.27266e-05
-1.10113e-06
1.2753e-05
-1.22416e-06
1.27729e-05
-1.35471e-06
1.27847e-05
-1.49203e-06
1.27872e-05
-1.6349e-06
-1.78161e-06
1.27792e-05
1.00316e-05
1.84608e-07
1.01214e-05
5.46566e-07
1.02601e-05
8.84578e-07
1.04359e-05
1.18553e-06
1.0636e-05
1.44068e-06
1.08482e-05
1.64523e-06
1.1062e-05
1.79794e-06
1.12691e-05
1.90057e-06
1.14634e-05
1.95707e-06
1.1641e-05
1.97275e-06
1.17998e-05
1.95364e-06
1.19393e-05
1.90589e-06
1.20598e-05
1.83542e-06
1.21627e-05
1.74761e-06
1.22496e-05
1.64724e-06
1.23224e-05
1.53837e-06
1.23831e-05
1.42437e-06
1.24335e-05
1.30798e-06
1.24754e-05
1.19134e-06
1.25105e-05
1.07608e-06
1.25401e-05
9.63416e-07
1.25656e-05
8.5417e-07
1.25881e-05
7.48879e-07
1.26083e-05
6.47826e-07
1.26273e-05
5.51097e-07
1.26455e-05
4.58616e-07
1.26635e-05
3.70181e-07
1.26819e-05
2.85488e-07
1.27008e-05
2.04151e-07
1.27208e-05
1.25718e-07
1.27419e-05
4.96841e-08
1.27643e-05
-2.45013e-08
1.27883e-05
-9.74296e-08
1.28139e-05
-1.69728e-07
1.2841e-05
-2.42058e-07
1.28697e-05
-3.15112e-07
1.28998e-05
-3.8961e-07
1.29311e-05
-4.66296e-07
1.29634e-05
-5.45929e-07
1.29962e-05
-6.2927e-07
1.30289e-05
-7.17059e-07
1.30609e-05
-8.09992e-07
1.30913e-05
-9.08673e-07
1.3119e-05
-1.01357e-06
1.31428e-05
-1.12496e-06
1.31615e-05
-1.24285e-06
1.31737e-05
-1.36694e-06
1.31782e-05
-1.49655e-06
1.3174e-05
-1.63063e-06
-1.76778e-06
1.31602e-05
1.00276e-05
1.56976e-07
1.01072e-05
4.66958e-07
1.02321e-05
7.59705e-07
1.03932e-05
1.02441e-06
1.05806e-05
1.25336e-06
1.07841e-05
1.4417e-06
1.09947e-05
1.58734e-06
1.12046e-05
1.69065e-06
1.14078e-05
1.75391e-06
1.15997e-05
1.78078e-06
1.17776e-05
1.77574e-06
1.19399e-05
1.74362e-06
1.2086e-05
1.68929e-06
1.22163e-05
1.61737e-06
1.23315e-05
1.53207e-06
1.24327e-05
1.4371e-06
1.25215e-05
1.33564e-06
1.25991e-05
1.23035e-06
1.26671e-05
1.12336e-06
1.27268e-05
1.01639e-06
1.27794e-05
9.10732e-07
1.28263e-05
8.0733e-07
1.28683e-05
7.06839e-07
1.29065e-05
6.09665e-07
1.29416e-05
5.16008e-07
1.29743e-05
4.259e-07
1.30052e-05
3.39236e-07
1.30349e-05
2.55798e-07
1.30638e-05
1.7528e-07
1.30922e-05
9.73015e-08
1.31205e-05
2.14224e-08
1.31488e-05
-5.28471e-08
1.31774e-05
-1.26039e-07
1.32064e-05
-1.98721e-07
1.32359e-05
-2.7149e-07
1.32657e-05
-3.44973e-07
1.32959e-05
-4.19813e-07
1.33263e-05
-4.96668e-07
1.33566e-05
-5.76199e-07
1.33863e-05
-6.59057e-07
1.34152e-05
-7.45861e-07
1.34423e-05
-8.37174e-07
1.34671e-05
-9.33467e-07
1.34886e-05
-1.03508e-06
1.35059e-05
-1.14219e-06
1.35178e-05
-1.25474e-06
1.35232e-05
-1.3724e-06
1.35213e-05
-1.49459e-06
1.3511e-05
-1.6204e-06
-1.74866e-06
1.34919e-05
1.00245e-05
1.32494e-07
1.00958e-05
3.95688e-07
1.02089e-05
6.46528e-07
1.03572e-05
8.76168e-07
1.05325e-05
1.07797e-06
1.07269e-05
1.24738e-06
1.09323e-05
1.38194e-06
1.11418e-05
1.48115e-06
1.13495e-05
1.54617e-06
1.15509e-05
1.5794e-06
1.17426e-05
1.58407e-06
1.19223e-05
1.56392e-06
1.20887e-05
1.52284e-06
1.22414e-05
1.46469e-06
1.23804e-05
1.39308e-06
1.25062e-05
1.3113e-06
1.26196e-05
1.22224e-06
1.27215e-05
1.12838e-06
1.28131e-05
1.03177e-06
1.28954e-05
9.34084e-07
1.29695e-05
8.36644e-07
1.30364e-05
7.40446e-07
1.3097e-05
6.4621e-07
1.31523e-05
5.5442e-07
1.32029e-05
4.65357e-07
1.32497e-05
3.79135e-07
1.32932e-05
2.95728e-07
1.3334e-05
2.14994e-07
1.33726e-05
1.36697e-07
1.34094e-05
6.05261e-08
1.34447e-05
-1.3896e-08
1.34788e-05
-8.6996e-08
1.3512e-05
-1.59244e-07
1.35445e-05
-2.31144e-07
1.35762e-05
-3.03228e-07
1.36073e-05
-3.76051e-07
1.36377e-05
-4.5018e-07
1.36672e-05
-5.26189e-07
1.36956e-05
-6.04646e-07
1.37227e-05
-6.86101e-07
1.37479e-05
-7.71065e-07
1.37707e-05
-8.59989e-07
1.37905e-05
-9.53236e-07
1.38064e-05
-1.05105e-06
1.38178e-05
-1.15353e-06
1.38236e-05
-1.26056e-06
1.3823e-05
-1.37185e-06
1.38153e-05
-1.48685e-06
1.37997e-05
-1.6048e-06
-1.7247e-06
1.37758e-05
1.00219e-05
1.10548e-07
1.00864e-05
3.31242e-07
1.01898e-05
5.43141e-07
1.03269e-05
7.39068e-07
1.04914e-05
9.13428e-07
1.06767e-05
1.06213e-06
1.08759e-05
1.18267e-06
1.1083e-05
1.2741e-06
1.12923e-05
1.33682e-06
1.14994e-05
1.37231e-06
1.17007e-05
1.38286e-06
1.18933e-05
1.37126e-06
1.20756e-05
1.3406e-06
1.22463e-05
1.29399e-06
1.24049e-05
1.23446e-06
1.25513e-05
1.16485e-06
1.26859e-05
1.08768e-06
1.28091e-05
1.0052e-06
1.29215e-05
9.19291e-07
1.30241e-05
8.31533e-07
1.31175e-05
7.43193e-07
1.32027e-05
6.55257e-07
1.32805e-05
5.68463e-07
1.33516e-05
4.83328e-07
1.34168e-05
4.00181e-07
1.34767e-05
3.19189e-07
1.3532e-05
2.40383e-07
1.35834e-05
1.63683e-07
1.36311e-05
8.89112e-08
1.36758e-05
1.58168e-08
1.37179e-05
-5.59161e-08
1.37575e-05
-1.26654e-07
1.37951e-05
-1.96806e-07
1.38308e-05
-2.66811e-07
1.38647e-05
-3.37137e-07
1.38969e-05
-4.08266e-07
1.39274e-05
-4.80691e-07
1.39561e-05
-5.54904e-07
1.39828e-05
-6.31387e-07
1.40073e-05
-7.10597e-07
1.40292e-05
-7.92951e-07
1.4048e-05
-8.78806e-07
1.40632e-05
-9.68436e-07
1.40742e-05
-1.06201e-06
1.40802e-05
-1.15955e-06
1.40806e-05
-1.26095e-06
1.40747e-05
-1.3659e-06
1.40617e-05
-1.47392e-06
1.40413e-05
-1.58434e-06
-1.69633e-06
1.40129e-05
1.00199e-05
9.0644e-08
1.00788e-05
2.7236e-07
1.0174e-05
4.47882e-07
1.03017e-05
6.11452e-07
1.04566e-05
7.58449e-07
1.06334e-05
8.8534e-07
1.08263e-05
9.89778e-07
1.10298e-05
1.07062e-06
1.12388e-05
1.1278e-06
1.1449e-05
1.16217e-06
1.16565e-05
1.17531e-06
1.18585e-05
1.16925e-06
1.20527e-05
1.14637e-06
1.22376e-05
1.10914e-06
1.2412e-05
1.06002e-06
1.25755e-05
1.00139e-06
1.27278e-05
9.35398e-07
1.2869e-05
8.63986e-07
1.29995e-05
7.88833e-07
1.31196e-05
7.11354e-07
1.32301e-05
6.32713e-07
1.33315e-05
5.53835e-07
1.34246e-05
4.75425e-07
1.35099e-05
3.97995e-07
1.35882e-05
3.21886e-07
1.36601e-05
2.4729e-07
1.37262e-05
1.74273e-07
1.37871e-05
1.02797e-07
1.38433e-05
3.27315e-08
1.38952e-05
-3.61242e-08
1.39433e-05
-1.04032e-07
1.3988e-05
-1.71304e-07
1.40295e-05
-2.38288e-07
1.4068e-05
-3.05363e-07
1.41038e-05
-3.72932e-07
1.4137e-05
-4.41408e-07
1.41675e-05
-5.11212e-07
1.41953e-05
-5.82758e-07
1.42204e-05
-6.56448e-07
1.42425e-05
-7.32658e-07
1.42612e-05
-8.11719e-07
1.42763e-05
-8.93909e-07
1.42873e-05
-9.79426e-07
1.42937e-05
-1.06837e-06
1.42949e-05
-1.16075e-06
1.42903e-05
-1.2564e-06
1.42795e-05
-1.35504e-06
1.42618e-05
-1.45624e-06
1.42369e-05
-1.55942e-06
-1.66387e-06
1.42044e-05
1.00183e-05
7.23719e-08
1.00727e-05
2.17974e-07
1.01613e-05
3.59283e-07
1.02809e-05
4.91763e-07
1.04277e-05
6.11691e-07
1.05969e-05
7.16126e-07
1.07837e-05
8.03e-07
1.09832e-05
8.71156e-07
1.11907e-05
9.20289e-07
1.1402e-05
9.50833e-07
1.16135e-05
9.63817e-07
1.1822e-05
9.60713e-07
1.20251e-05
9.43283e-07
1.22208e-05
9.13443e-07
1.24077e-05
8.73144e-07
1.25848e-05
8.24289e-07
1.27515e-05
7.68658e-07
1.29077e-05
7.07866e-07
1.30532e-05
6.43336e-07
1.31882e-05
5.76286e-07
1.33132e-05
5.07731e-07
1.34285e-05
4.38489e-07
1.35348e-05
3.69196e-07
1.36325e-05
3.00318e-07
1.37222e-05
2.32179e-07
1.38045e-05
1.64967e-07
1.388e-05
9.8764e-08
1.39492e-05
3.35527e-08
1.40127e-05
-3.07623e-08
1.40709e-05
-9.43434e-08
1.41243e-05
-1.57408e-07
1.41732e-05
-2.20215e-07
1.4218e-05
-2.83062e-07
1.42589e-05
-3.4627e-07
1.42962e-05
-4.10176e-07
1.43299e-05
-4.75132e-07
1.43602e-05
-5.41487e-07
1.4387e-05
-6.09587e-07
1.44103e-05
-6.79757e-07
1.44299e-05
-7.52299e-07
1.44457e-05
-8.27472e-07
1.44573e-05
-9.05481e-07
1.44643e-05
-9.86464e-07
1.44664e-05
-1.07047e-06
1.44631e-05
-1.15747e-06
1.4454e-05
-1.24729e-06
1.44386e-05
-1.33966e-06
1.44166e-05
-1.4342e-06
1.43875e-05
-1.53038e-06
-1.62759e-06
1.43513e-05
1.0017e-05
5.53859e-08
1.00678e-05
1.67161e-07
1.0151e-05
2.76038e-07
1.02643e-05
3.78546e-07
1.04042e-05
4.71791e-07
1.05669e-05
5.53428e-07
1.07481e-05
6.21741e-07
1.09436e-05
6.75688e-07
1.1149e-05
7.14867e-07
1.13604e-05
7.39453e-07
1.15741e-05
7.50095e-07
1.1787e-05
7.47812e-07
1.19964e-05
7.33875e-07
1.22002e-05
7.09708e-07
1.23965e-05
6.76794e-07
1.25842e-05
6.36601e-07
1.27623e-05
5.90526e-07
1.29303e-05
5.3985e-07
1.3088e-05
4.85718e-07
1.32351e-05
4.29118e-07
1.3372e-05
3.70883e-07
1.34988e-05
3.1169e-07
1.36159e-05
2.52069e-07
1.37238e-05
1.92415e-07
1.3823e-05
1.33002e-07
1.3914e-05
7.39962e-08
1.39972e-05
1.5468e-08
1.40734e-05
-4.25913e-08
1.41429e-05
-1.00258e-07
1.42062e-05
-1.57668e-07
1.42638e-05
-2.14999e-07
1.43161e-05
-2.7247e-07
1.43633e-05
-3.30329e-07
1.44059e-05
-3.88841e-07
1.4444e-05
-4.4829e-07
1.44778e-05
-5.08963e-07
1.45075e-05
-5.71147e-07
1.4533e-05
-6.35119e-07
1.45544e-05
-7.0114e-07
1.45716e-05
-7.69442e-07
1.45843e-05
-8.40219e-07
1.45924e-05
-9.13615e-07
1.45957e-05
-9.89715e-07
1.45937e-05
-1.06853e-06
1.45863e-05
-1.14999e-06
1.45729e-05
-1.23392e-06
1.45533e-05
-1.32007e-06
1.45272e-05
-1.40807e-06
1.44943e-05
-1.49746e-06
-1.58772e-06
1.44544e-05
1.0016e-05
3.93861e-08
1.00641e-05
1.19107e-07
1.01431e-05
1.96963e-07
1.02512e-05
2.70432e-07
1.03856e-05
3.3739e-07
1.0543e-05
3.96078e-07
1.07196e-05
4.45175e-07
1.09114e-05
4.83834e-07
1.11146e-05
5.11664e-07
1.13254e-05
5.28695e-07
1.15402e-05
5.35313e-07
1.17558e-05
5.32182e-07
1.19695e-05
5.20171e-07
1.21789e-05
5.00277e-07
1.23822e-05
4.73557e-07
1.25777e-05
4.41071e-07
1.27644e-05
4.03839e-07
1.29414e-05
3.62807e-07
1.31083e-05
3.18825e-07
1.32648e-05
2.72633e-07
1.34108e-05
2.24855e-07
1.35465e-05
1.76001e-07
1.36721e-05
1.26472e-07
1.3788e-05
7.65647e-08
1.38945e-05
2.64815e-08
1.39921e-05
-2.36575e-08
1.40814e-05
-7.38061e-08
1.41628e-05
-1.23981e-07
1.42368e-05
-1.74254e-07
1.43039e-05
-2.24739e-07
1.43645e-05
-2.75589e-07
1.4419e-05
-3.26986e-07
1.44678e-05
-3.79134e-07
1.45112e-05
-4.32251e-07
1.45495e-05
-4.86566e-07
1.45828e-05
-5.4231e-07
1.46114e-05
-5.99711e-07
1.46352e-05
-6.58984e-07
1.46544e-05
-7.20329e-07
1.46689e-05
-7.83915e-07
1.46786e-05
-8.4988e-07
1.46833e-05
-9.18314e-07
1.46828e-05
-9.89255e-07
1.46769e-05
-1.06268e-06
1.46654e-05
-1.13848e-06
1.4648e-05
-1.2165e-06
1.46244e-05
-1.29648e-06
1.45944e-05
-1.37807e-06
1.45579e-05
-1.46088e-06
-1.54443e-06
1.45146e-05
1.00153e-05
2.41058e-08
1.00613e-05
7.30768e-08
1.01373e-05
1.20968e-07
1.02416e-05
1.66127e-07
1.03719e-05
2.07146e-07
1.05251e-05
2.42846e-07
1.06979e-05
2.72324e-07
1.08868e-05
2.94976e-07
1.1088e-05
3.10494e-07
1.12978e-05
3.18845e-07
1.15129e-05
3.20229e-07
1.173e-05
3.15034e-07
1.19464e-05
3.03792e-07
1.21596e-05
2.87121e-07
1.23675e-05
2.6569e-07
1.25683e-05
2.40174e-07
1.2761e-05
2.11227e-07
1.29443e-05
1.79459e-07
1.31177e-05
1.45418e-07
1.32808e-05
1.0958e-07
1.34333e-05
7.23479e-08
1.35752e-05
3.40451e-08
1.37068e-05
-5.07831e-09
1.38282e-05
-4.48422e-08
1.39398e-05
-8.51307e-08
1.4042e-05
-1.25886e-07
1.41353e-05
-1.67101e-07
1.42202e-05
-2.08812e-07
1.4297e-05
-2.51094e-07
1.43663e-05
-2.94054e-07
1.44285e-05
-3.37822e-07
1.44841e-05
-3.82549e-07
1.45334e-05
-4.28402e-07
1.45767e-05
-4.75555e-07
1.46143e-05
-5.24189e-07
1.46465e-05
-5.74482e-07
1.46734e-05
-6.26607e-07
1.46951e-05
-6.80723e-07
1.47118e-05
-7.36971e-07
1.47233e-05
-7.95469e-07
1.47297e-05
-8.56299e-07
1.47309e-05
-9.19505e-07
1.47267e-05
-9.85083e-07
1.4717e-05
-1.05298e-06
1.47016e-05
-1.12307e-06
1.46803e-05
-1.19518e-06
1.46529e-05
-1.26906e-06
1.46192e-05
-1.34439e-06
1.45791e-05
-1.42081e-06
-1.49787e-06
1.45326e-05
1.00148e-05
9.30109e-09
1.00595e-05
2.83904e-08
1.01334e-05
4.70329e-08
1.02352e-05
6.4388e-08
1.03626e-05
7.97359e-08
1.0513e-05
9.24682e-08
1.06832e-05
1.0211e-07
1.08698e-05
1.08331e-07
1.10694e-05
1.10951e-07
1.12783e-05
1.09919e-07
1.14932e-05
1.05305e-07
1.1711e-05
9.72715e-08
1.19287e-05
8.60519e-08
1.21439e-05
7.19255e-08
1.23544e-05
5.51955e-08
1.25584e-05
3.61699e-08
1.27545e-05
1.51459e-08
1.29415e-05
-7.602e-09
1.31188e-05
-3.18308e-08
1.32857e-05
-5.7334e-08
1.3442e-05
-8.39446e-08
1.35876e-05
-1.11536e-07
1.37225e-05
-1.40019e-07
1.3847e-05
-1.69344e-07
1.39614e-05
-1.99495e-07
1.4066e-05
-2.30484e-07
1.41612e-05
-2.62355e-07
1.42476e-05
-2.95172e-07
1.43255e-05
-3.29021e-07
1.43955e-05
-3.64004e-07
1.44579e-05
-4.00238e-07
1.45132e-05
-4.37848e-07
1.45618e-05
-4.76966e-07
1.46039e-05
-5.17728e-07
1.464e-05
-5.60268e-07
1.46702e-05
-6.04716e-07
1.46948e-05
-6.51195e-07
1.47139e-05
-6.99811e-07
1.47276e-05
-7.50655e-07
1.47359e-05
-8.03791e-07
1.47389e-05
-8.59258e-07
1.47364e-05
-9.17055e-07
1.47285e-05
-9.77143e-07
1.47149e-05
-1.03944e-06
1.46957e-05
-1.1038e-06
1.46705e-05
-1.17004e-06
1.46394e-05
-1.23792e-06
1.46022e-05
-1.30714e-06
1.45587e-05
-1.37736e-06
-1.44817e-06
1.4509e-05
1.00146e-05
-5.25728e-09
1.00585e-05
-1.55962e-08