/*--------------------------------*- C++ -*----------------------------------*\
| =========                 |                                                 |
| \\      /  F ield         | OpenFOAM: The Open Source CFD Toolbox           |
|  \\    /   O peration     | Version:  2306                                  |
|   \\  /    A nd           | Website:  www.openfoam.com                      |
|    \\/     M anipulation  |                                                 |
\*---------------------------------------------------------------------------*/
FoamFile
{
    version     2.0;
    format      ascii;
    arch        "LSB;label=32;scalar=64";
    class       surfaceScalarField;
    location    "0.68";
    object      phi;
}
// * * * * * * * * * * * * * * * * * * * * * * * * * * * * * * * * * * * * * //

dimensions      [0 3 -1 0 0 0 0];

oriented        oriented;

internalField   nonuniform List<scalar> 
890
(
8.50913e-05
1.49087e-05
7.26699e-05
1.24214e-05
6.71595e-05
5.51044e-06
6.78794e-05
-7.19958e-07
-9.59009e-06
7.74695e-05
0.0001097
5.20867e-06
0.000117543
4.57874e-06
0.000122405
6.48558e-07
0.000126113
-4.42836e-06
-1.13754e-05
0.000127898
0.00011182
-6.61126e-06
0.000124952
-8.5534e-06
0.000133372
-7.77168e-06
0.000137101
-8.15734e-06
-1.04697e-05
0.000136196
0.000109059
-1.56698e-05
0.000115017
-1.4512e-05
0.000116578
-9.33298e-06
0.000114866
-6.44495e-06
-5.61202e-06
0.000110008
8.43302e-05
6.98182e-05
6.04852e-05
5.40403e-05
4.84283e-05
-1.60548e-06
1.60548e-06
-2.47505e-06
8.69569e-07
-1.75146e-06
-7.23589e-07
2.37127e-07
-1.98858e-06
2.90031e-06
-2.66319e-06
5.7306e-06
-2.83029e-06
8.35945e-06
-2.62885e-06
1.05827e-05
-2.22322e-06
1.23271e-05
-1.74446e-06
1.36058e-05
-1.27872e-06
1.44794e-05
-8.73523e-07
1.50274e-05
-5.48054e-07
1.53307e-05
-3.03307e-07
1.5461e-05
-1.30307e-07
1.5477e-05
-1.59204e-08
1.54234e-05
5.35504e-08
1.53328e-05
9.05808e-08
1.52276e-05
1.05264e-07
1.51221e-05
1.0547e-07
1.5025e-05
9.70858e-08
1.49407e-05
8.42811e-08
1.48709e-05
6.98631e-08
1.48152e-05
5.56206e-08
1.47726e-05
4.2604e-08
1.47413e-05
3.13459e-08
1.47193e-05
2.203e-08
1.47046e-05
1.46174e-08
1.46957e-05
8.93881e-09
1.4691e-05
4.75822e-09
1.46891e-05
1.81731e-09
1.46893e-05
-1.36649e-10
1.46906e-05
-1.3334e-09
1.46926e-05
-1.97484e-09
1.46948e-05
-2.22399e-09
1.4697e-05
-2.21154e-09
1.46991e-05
-2.03888e-09
1.47008e-05
-1.78107e-09
1.47023e-05
-1.49115e-09
1.47035e-05
-1.20478e-09
1.47045e-05
-9.44574e-10
1.47052e-05
-7.24137e-10
1.47057e-05
-5.51861e-10
1.47062e-05
-4.35068e-10
1.47066e-05
-3.89657e-10
-4.4165e-10
-1.91012e-06
3.5156e-06
-1.45042e-06
4.09868e-07
1.66408e-06
-3.83809e-06
6.60143e-06
-6.92593e-06
1.23983e-05
-8.46002e-06
1.824e-05
-8.67205e-06
2.35907e-05
-7.97952e-06
2.81568e-05
-6.78931e-06
3.18309e-05
-5.41858e-06
3.46318e-05
-4.07963e-06
3.66529e-05
-2.89463e-06
3.80232e-05
-1.91832e-06
3.888e-05
-1.16014e-06
3.93524e-05
-6.02703e-07
3.9552e-05
-2.15449e-07
3.95696e-05
3.59572e-08
3.9475e-05
1.8515e-07
3.93198e-05
2.60454e-07
3.91401e-05
2.85137e-07
3.89598e-05
2.7746e-07
3.87931e-05
2.50944e-07
3.86478e-05
2.15168e-07
3.85268e-05
1.76604e-07
3.843e-05
1.39357e-07
3.83556e-05
1.05802e-07
3.83005e-05
7.70883e-08
3.82616e-05
5.35421e-08
3.82356e-05
3.49654e-08
3.82195e-05
2.08579e-08
3.82107e-05
1.05731e-08
3.82072e-05
3.42235e-09
3.82071e-05
-1.24789e-09
3.82092e-05
-4.04968e-09
3.82124e-05
-5.4785e-09
3.82162e-05
-5.9519e-09
3.82199e-05
-5.80097e-09
3.82234e-05
-5.2782e-09
3.82265e-05
-4.56838e-09
3.82291e-05
-3.80109e-09
3.82312e-05
-3.0628e-09
3.82329e-05
-2.40814e-09
3.82342e-05
-1.87008e-09
3.82352e-05
-1.46812e-09
3.82361e-05
-1.21718e-09
-1.14257e-09
5.09994e-09
3.51049e-06
3.86228e-06
-3.44731e-06
1.04089e-05
-1.03847e-05
1.80364e-05
-1.45535e-05
2.56837e-05
-1.61073e-05
3.27457e-05
-1.5734e-05
3.89013e-05
-1.41351e-05
4.40224e-05
-1.19104e-05
4.81086e-05
-9.50484e-06
5.1239e-05
-7.21003e-06
5.35356e-05
-5.19124e-06
5.51383e-05
-3.52096e-06
5.61873e-05
-2.20917e-06
5.68127e-05
-1.22813e-06
5.71281e-05
-5.30804e-07
5.72281e-05
-6.41108e-08
5.71868e-05
2.26492e-07
5.70617e-05
3.85541e-07
5.68947e-05
4.52149e-07
5.67147e-05
4.57475e-07
5.65404e-05
4.25195e-07
5.6383e-05
3.7257e-07
5.6248e-05
3.1164e-07
5.6137e-05
2.50349e-07
5.60493e-05
1.93553e-07
5.59825e-05
1.43862e-07
5.59337e-05
1.02325e-07
5.58997e-05
6.89607e-08
5.58774e-05
4.31599e-08
5.5864e-05
2.39738e-08
5.58571e-05
1.03178e-08
5.58547e-05
1.11613e-09
5.58554e-05
-4.67497e-09
5.58578e-05
-7.90302e-09
5.58611e-05
-9.30661e-09
5.58648e-05
-9.48079e-09
5.58684e-05
-8.88681e-09
5.58717e-05
-7.86866e-09
5.58746e-05
-6.67283e-09
5.5877e-05
-5.46811e-09
5.5879e-05
-4.36385e-09
5.58805e-05
-3.42647e-09
5.58817e-05
-2.69237e-09
5.58827e-05
-2.17551e-09
-1.89854e-09
5.9288e-06
-2.41831e-06
1.55384e-05
-1.30569e-05
2.58963e-05
-2.07426e-05
3.52479e-05
-2.39051e-05
4.31531e-05
-2.40125e-05
4.96171e-05
-2.21981e-05
5.47792e-05
-1.92972e-05
5.88149e-05
-1.59461e-05
6.19023e-05
-1.25922e-05
6.42073e-05
-9.51503e-06
6.58781e-05
-6.86202e-06
6.70437e-05
-4.68657e-06
6.7815e-05
-2.98048e-06
6.82861e-05
-1.69921e-06
6.85356e-05
-7.80375e-07
6.86286e-05
-1.57107e-07
6.86155e-05
2.39636e-07
6.85366e-05
4.64397e-07
6.84224e-05
5.66363e-07
6.82943e-05
5.85542e-07
6.8167e-05
5.52556e-07
6.80494e-05
4.90126e-07
6.79467e-05
4.14409e-07
6.78607e-05
3.36313e-07
6.77916e-05
2.62698e-07
6.7738e-05
1.97428e-07
6.76981e-05
1.42243e-07
6.76696e-05
9.74488e-08
6.76503e-05
6.24453e-08
6.76381e-05
3.61249e-08
6.76313e-05
1.71501e-08
6.76283e-05
4.15405e-09
6.76278e-05
-4.21536e-09
6.7629e-05
-9.07821e-09
6.76311e-05
-1.13986e-08
6.76336e-05
-1.19838e-08
6.76362e-05
-1.14588e-08
6.76386e-05
-1.02948e-08
6.76407e-05
-8.83357e-09
6.76426e-05
-7.31236e-09
6.76441e-05
-5.8871e-09
6.76453e-05
-4.65337e-09
6.76463e-05
-3.66342e-09
6.76471e-05
-2.93475e-09
-2.48708e-09
2.23063e-05
-2.47246e-05
3.92439e-05
-2.99945e-05
5.06961e-05
-3.21948e-05
5.86463e-05
-3.18553e-05
6.40585e-05
-2.94247e-05
6.76558e-05
-2.57954e-05
7.0006e-05
-2.16474e-05
7.152e-05
-1.74601e-05
7.24849e-05
-1.35571e-05
7.30954e-05
-1.01255e-05
7.34789e-05
-7.24544e-06
7.37154e-05
-4.92315e-06
7.38547e-05
-3.11971e-06
7.39273e-05
-1.77187e-06
7.39535e-05
-8.06553e-07
7.39476e-05
-1.51187e-07
7.39192e-05
2.6801e-07
7.38773e-05
5.06332e-07
7.38285e-05
6.15204e-07
7.37778e-05
6.36218e-07
7.3729e-05
6.01377e-07
7.36844e-05
5.34644e-07
7.36456e-05
4.53224e-07
7.36131e-05
3.68856e-07
7.35868e-05
2.89007e-07
7.35662e-05
2.17951e-07
7.35508e-05
1.57669e-07
7.35397e-05
1.08575e-07
7.35321e-05
7.00829e-08
7.35271e-05
4.10355e-08
7.35243e-05
2.00088e-08
7.35229e-05
5.53209e-09
7.35225e-05
-3.85268e-09
7.35228e-05
-9.37866e-09
7.35235e-05
-1.2081e-08
7.35244e-05
-1.28514e-08
7.35253e-05
-1.23766e-08
7.35262e-05
-1.11763e-08
7.3527e-05
-9.62891e-09
7.35277e-05
-7.99816e-09
7.35282e-05
-6.45826e-09
7.35287e-05
-5.11642e-09
7.35291e-05
-4.03143e-09
7.35294e-05
-3.22314e-09
-2.70936e-09
7.97963e-05
-2.70514e-05
8.32627e-05
-3.34609e-05
8.50582e-05
-3.39903e-05
8.53042e-05
-3.21012e-05
8.44811e-05
-2.86015e-05
8.29856e-05
-2.43e-05
8.11877e-05
-1.98495e-05
7.93799e-05
-1.56522e-05
7.77483e-05
-1.19255e-05
7.63859e-05
-8.76322e-06
7.53183e-05
-6.17783e-06
7.45282e-05
-4.13307e-06
7.39761e-05
-2.56757e-06
7.36142e-05
-1.41001e-06
7.33959e-05
-5.8818e-07
7.3281e-05
-3.63471e-08
7.32352e-05
3.13864e-07
7.32341e-05
5.07378e-07
7.32588e-05
5.90504e-07
7.32964e-05
5.98687e-07
7.33382e-05
5.59545e-07
7.3379e-05
4.93803e-07
7.34159e-05
4.16361e-07
7.34474e-05
3.37383e-07
7.34731e-05
2.63315e-07
7.34932e-05
1.97804e-07
7.35084e-05
1.42482e-07
7.35194e-05
9.76027e-08
7.35269e-05
6.25436e-08
7.35318e-05
3.61858e-08
7.35346e-05
1.71861e-08
7.35359e-05
4.17403e-09
7.35363e-05
-4.20509e-09
7.3536e-05
-9.07361e-09
7.35353e-05
-1.13969e-08
7.35344e-05
-1.19834e-08
7.35335e-05
-1.14589e-08
7.35326e-05
-1.0295e-08
7.35318e-05
-8.83375e-09
7.35311e-05
-7.31245e-09
7.35306e-05
-5.88711e-09
7.35301e-05
-4.65334e-09
7.35297e-05
-3.66336e-09
7.35295e-05
-2.93469e-09
-2.48702e-09
0.000122526
-2.16787e-05
0.000115897
-2.68325e-05
0.000108971
-2.7064e-05
0.00010184
-2.49706e-05
9.49685e-05
-2.17298e-05
8.87041e-05
-1.80356e-05
8.32505e-05
-1.4396e-05
7.87042e-05
-1.11059e-05
7.50679e-05
-8.28922e-06
7.2274e-05
-5.96935e-06
7.02137e-05
-4.11753e-06
6.87616e-05
-2.68094e-06
6.77926e-05
-1.59865e-06
6.71927e-05
-8.10046e-07
6.68634e-05
-2.5888e-07
6.67221e-05
1.04898e-07
6.67089e-05
3.27082e-07
6.67733e-05
4.43041e-07
6.68799e-05
4.83862e-07
6.70041e-05
4.74456e-07
6.71296e-05
4.3411e-07
6.72461e-05
3.77234e-07
6.73484e-05
3.14129e-07
6.7434e-05
2.51738e-07
6.75029e-05
1.94377e-07
6.75564e-05
1.44378e-07
6.75962e-05
1.02659e-07
6.76246e-05
6.91777e-08
6.76439e-05
4.32981e-08
6.7656e-05
2.40584e-08
6.76628e-05
1.03668e-08
6.76658e-05
1.14256e-09
6.76663e-05
-4.66198e-09
6.76651e-05
-7.89757e-09
6.7663e-05
-9.30491e-09
6.76605e-05
-9.48069e-09
6.7658e-05
-8.88722e-09
6.76555e-05
-7.86907e-09
6.76534e-05
-6.6731e-09
6.76515e-05
-5.46822e-09
6.765e-05
-4.36384e-09
6.76488e-05
-3.4264e-09
6.76478e-05
-2.69228e-09
6.7647e-05
-2.17542e-09
-1.89845e-09
0.000129041
-1.45241e-05
0.000118859
-1.66506e-05
0.000107974
-1.61791e-05
9.73693e-05
-1.43656e-05
8.77152e-05
-1.20757e-05
7.94047e-05
-9.72506e-06
7.25614e-05
-7.5526e-06
6.71347e-05
-5.67923e-06
6.298e-05
-4.13446e-06
5.99097e-05
-2.89907e-06
5.77278e-05
-1.93563e-06
5.62494e-05
-1.20258e-06
5.53109e-05
-6.6015e-07
5.47734e-05
-2.72491e-07
5.45219e-05
-7.44511e-09
5.44663e-05
1.60497e-07
5.45365e-05
2.56874e-07
5.46795e-05
3.00079e-07
5.48571e-05
3.06275e-07
5.50431e-05
2.88444e-07
5.52206e-05
2.5659e-07
5.53798e-05
2.18111e-07
5.55157e-05
1.78207e-07
5.56271e-05
1.40294e-07
5.57151e-05
1.06389e-07
5.5782e-05
7.74736e-08
5.58309e-05
5.37981e-08
5.58649e-05
3.51326e-08
5.58873e-05
2.09632e-08
5.59007e-05
1.06358e-08
5.59076e-05
3.45722e-09
5.591e-05
-1.23026e-09
5.59093e-05
-4.04183e-09
5.59069e-05
-5.47578e-09
5.59036e-05
-5.95151e-09
5.58999e-05
-5.80139e-09
5.58963e-05
-5.27873e-09
5.5893e-05
-4.56876e-09
5.58901e-05
-3.80128e-09
5.58877e-05
-3.06285e-09
5.58857e-05
-2.40809e-09
5.58842e-05
-1.86999e-09
5.5883e-05
-1.46802e-09
5.5882e-05
-1.21708e-09
-1.14249e-09
0.000101482
-5.9976e-06
9.09182e-05
-6.08709e-06
8.02128e-05
-5.47373e-06
7.0395e-05
-4.54775e-06
6.1935e-05
-3.61567e-06
5.49912e-05
-2.78127e-06
4.95141e-05
-2.07554e-06
4.53386e-05
-1.5037e-06
4.22576e-05
-1.0535e-06
4.00643e-05
-7.05724e-07
3.85704e-05
-4.41717e-07
3.76133e-05
-2.45548e-07
3.70572e-05
-1.03956e-07
3.67907e-05
-6.04913e-09
3.67254e-05
5.78629e-08
3.67907e-05
9.51657e-08
3.69346e-05
1.13002e-07
3.71179e-05
1.16817e-07
3.73129e-05
1.11207e-07
3.75015e-05
9.98824e-08
3.76724e-05
8.56665e-08
3.78199e-05
7.05972e-08
3.79421e-05
5.60551e-08
3.80395e-05
4.28903e-08
3.81143e-05
3.15461e-08
3.81696e-05
2.21708e-08
3.82087e-05
1.47135e-08
3.82349e-05
9.00107e-09
3.8251e-05
4.79601e-09
3.82598e-05
1.83847e-09
3.82634e-05
-1.25961e-10
3.82635e-05
-1.32878e-09
3.82614e-05
-1.97337e-09
3.82582e-05
-2.22394e-09
3.82544e-05
-2.21195e-09
3.82507e-05
-2.03931e-09
3.82472e-05
-1.78137e-09
3.82441e-05
-1.49131e-09
3.82415e-05
-1.20483e-09
3.82394e-05
-9.44556e-10
3.82377e-05
-7.24088e-10
3.82364e-05
-5.51803e-10
3.82354e-05
-4.35015e-10
3.82345e-05
-3.89612e-10
-4.4161e-10
4.24307e-05
3.63436e-05
3.08698e-05
2.63221e-05
2.27064e-05
1.99251e-05
1.78496e-05
1.63459e-05
1.52924e-05
1.45867e-05
1.4145e-05
1.38994e-05
1.37955e-05
1.37894e-05
1.38473e-05
1.39424e-05
1.40554e-05
1.41723e-05
1.42835e-05
1.43833e-05
1.4469e-05
1.45396e-05
1.45957e-05
1.46386e-05
1.46701e-05
1.46923e-05
1.4707e-05
1.4716e-05
1.47208e-05
1.47226e-05
1.47225e-05
1.47212e-05
1.47192e-05
1.4717e-05
1.47148e-05
1.47127e-05
1.47109e-05
1.47094e-05
1.47082e-05
1.47073e-05
1.47066e-05
1.4706e-05
1.47056e-05
1.47052e-05
)
;

boundaryField
{
    fixedWalls
    {
        type            calculated;
        value           uniform 0;
    }
    inflowWall
    {
        type            calculated;
        value           nonuniform List<scalar> 5(-0.0001 -0.0001 -0.0001 -0.0001 -0.0001);
    }
    outflowWall
    {
        type            calculated;
        value           nonuniform List<scalar> 10(1.4707e-05 3.82368e-05 5.58835e-05 6.76477e-05 7.35296e-05 7.35292e-05 6.76465e-05 5.58812e-05 3.82338e-05 1.47047e-05);
    }
    frontAndBack
    {
        type            empty;
        value           nonuniform List<scalar> 0();
    }
}


// ************************************************************************* //
