/*--------------------------------*- C++ -*----------------------------------*\
| =========                 |                                                 |
| \\      /  F ield         | OpenFOAM: The Open Source CFD Toolbox           |
|  \\    /   O peration     | Version:  2306                                  |
|   \\  /    A nd           | Website:  www.openfoam.com                      |
|    \\/     M anipulation  |                                                 |
\*---------------------------------------------------------------------------*/
FoamFile
{
    version     2.0;
    format      ascii;
    arch        "LSB;label=32;scalar=64";
    class       surfaceScalarField;
    location    "0.13";
    object      phi;
}
// * * * * * * * * * * * * * * * * * * * * * * * * * * * * * * * * * * * * * //

dimensions      [0 3 -1 0 0 0 0];

oriented        oriented;

internalField   nonuniform List<scalar> 
94400
(
7.3514e-06
2.6486e-06
5.10551e-06
2.24589e-06
3.71255e-06
1.39297e-06
2.84758e-06
8.64968e-07
2.29182e-06
5.55756e-07
1.91982e-06
3.72002e-07
1.65898e-06
2.6084e-07
1.46776e-06
1.91219e-07
1.32226e-06
1.45498e-07
1.20828e-06
1.13984e-07
1.11696e-06
9.13136e-08
1.04255e-06
7.44167e-08
9.81093e-07
6.14537e-08
9.29821e-07
5.12725e-08
8.867e-07
4.31202e-08
8.50214e-07
3.64862e-08
8.19201e-07
3.1013e-08
7.92758e-07
2.64436e-08
7.70169e-07
2.25889e-08
7.50862e-07
1.93067e-08
7.34374e-07
1.64884e-08
7.20324e-07
1.40498e-08
7.084e-07
1.19241e-08
6.98341e-07
1.00583e-08
6.89932e-07
8.40903e-09
6.82992e-07
6.94069e-09
6.77368e-07
5.62355e-09
6.72936e-07
4.43227e-09
6.69591e-07
3.34498e-09
6.67249e-07
2.34227e-09
6.65842e-07
1.40654e-09
6.65321e-07
5.21288e-10
6.6565e-07
-3.29572e-10
6.66813e-07
-1.16249e-09
6.68808e-07
-1.9952e-09
6.71656e-07
-2.84791e-09
6.75401e-07
-3.74524e-09
6.8012e-07
-4.71892e-09
6.85933e-07
-5.81266e-09
6.93023e-07
-7.0905e-09
7.01677e-07
-8.65333e-09
7.12349e-07
-1.06728e-08
7.25817e-07
-1.34678e-08
7.43502e-07
-1.76848e-08
7.6824e-07
-2.47383e-08
8.06116e-07
-3.78761e-08
8.70905e-07
-6.47889e-08
9.95698e-07
-1.24793e-07
1.26631e-06
-2.70608e-07
-6.38451e-07
1.90476e-06
1.01831e-05
2.46545e-06
9.21642e-06
3.21262e-06
7.94626e-06
2.66312e-06
6.79704e-06
2.01419e-06
5.86111e-06
1.49169e-06
5.12474e-06
1.10837e-06
4.54843e-06
8.3715e-07
4.09395e-06
6.45698e-07
3.73108e-06
5.08362e-07
3.43748e-06
4.07589e-07
3.19692e-06
3.31877e-07
2.99763e-06
2.73702e-07
2.831e-06
2.28088e-07
2.69059e-06
1.91679e-07
2.57155e-06
1.62161e-07
2.47013e-06
1.37902e-07
2.38342e-06
1.17725e-07
2.3091e-06
1.00765e-07
2.24532e-06
8.63738e-08
2.19056e-06
7.40585e-08
2.14361e-06
6.34373e-08
2.10345e-06
5.42106e-08
2.06924e-06
4.61399e-08
2.04026e-06
3.90328e-08
2.01594e-06
3.2732e-08
1.99577e-06
2.71068e-08
1.97935e-06
2.20472e-08
1.96632e-06
1.7459e-08
1.95641e-06
1.326e-08
1.94937e-06
9.37671e-09
1.94504e-06
5.74145e-09
1.94327e-06
2.29002e-09
1.94398e-06
-1.04134e-09
1.94714e-06
-4.31899e-09
1.95276e-06
-7.6161e-09
1.96093e-06
-1.1018e-08
1.97182e-06
-1.46305e-08
1.98569e-06
-1.85927e-08
2.00297e-06
-2.30973e-08
2.02431e-06
-2.8426e-08
2.05067e-06
-3.50121e-08
2.08355e-06
-4.35558e-08
2.12533e-06
-5.52447e-08
2.17983e-06
-7.21894e-08
2.25339e-06
-9.8295e-08
2.35648e-06
-1.40965e-07
2.50599e-06
-2.14295e-07
2.72637e-06
-3.45175e-07
3.03944e-06
-5.83677e-07
-9.9792e-07
3.3989e-06
1.05345e-05
1.93093e-06
1.04951e-05
3.25202e-06
9.90361e-06
3.25463e-06
9.09171e-06
2.8261e-06
8.26039e-06
2.32301e-06
7.49875e-06
1.87001e-06
6.83572e-06
1.50018e-06
6.27171e-06
1.20971e-06
5.79609e-06
9.83985e-07
5.39551e-06
8.08168e-07
5.05735e-06
6.70036e-07
4.77078e-06
5.60266e-07
4.52691e-06
4.71958e-07
4.31854e-06
4.00052e-07
4.13987e-06
3.40831e-07
3.98623e-06
2.91539e-07
3.85384e-06
2.50114e-07
3.73962e-06
2.14991e-07
3.64102e-06
1.84971e-07
3.55596e-06
1.5912e-07
3.48269e-06
1.36706e-07
3.41976e-06
1.17143e-07
3.36594e-06
9.99608e-08
3.3202e-06
8.47744e-08
3.28166e-06
7.12663e-08
3.2496e-06
5.91703e-08
3.22339e-06
4.82604e-08
3.2025e-06
3.83412e-08
3.18652e-06
2.92407e-08
3.1751e-06
2.08037e-08
3.16795e-06
1.28864e-08
3.16489e-06
5.35054e-09
3.16579e-06
-1.94218e-09
3.17061e-06
-9.13728e-09
3.17939e-06
-1.63961e-08
3.19228e-06
-2.39077e-08
3.20955e-06
-3.19065e-08
3.23166e-06
-4.06982e-08
3.25926e-06
-5.07011e-08
3.29335e-06
-6.25118e-08
3.33535e-06
-7.70153e-08
3.38737e-06
-9.55689e-08
3.45244e-06
-1.20318e-07
3.53498e-06
-1.54733e-07
3.64121e-06
-2.04522e-07
3.77931e-06
-2.79067e-07
3.95844e-06
-3.93422e-07
4.18381e-06
-5.70547e-07
4.44154e-06
-8.41409e-07
-1.22869e-06
4.67231e-06
1.04653e-05
1.46561e-06
1.07771e-05
2.94025e-06
1.06758e-05
3.3559e-06
1.02725e-05
3.22937e-06
9.71465e-06
2.88091e-06
9.10803e-06
2.47662e-06
8.51519e-06
2.09303e-06
7.96696e-06
1.75793e-06
7.47494e-06
1.476e-06
7.04049e-06
1.24262e-06
6.66012e-06
1.0504e-06
6.3285e-06
8.91893e-07
6.03986e-06
7.60598e-07
5.78874e-06
6.51169e-07
5.57024e-06
5.59332e-07
5.38007e-06
4.81709e-07
5.21454e-06
4.15641e-07
5.0705e-06
3.59027e-07
4.94527e-06
3.10204e-07
4.83655e-06
2.6784e-07
4.74239e-06
2.30866e-07
4.66112e-06
1.98412e-07
4.59132e-06
1.69765e-07
4.53176e-06
1.44334e-07
4.4814e-06
1.21625e-07
4.43935e-06
1.01218e-07
4.40486e-06
8.27547e-08
4.37728e-06
6.59191e-08
4.35609e-06
5.04318e-08
4.34085e-06
3.60384e-08
4.33124e-06
2.25008e-08
4.327e-06
9.58824e-09
4.32799e-06
-2.93158e-09
4.33416e-06
-1.53039e-08
4.34556e-06
-2.78009e-08
4.3624e-06
-4.07402e-08
4.385e-06
-5.45118e-08
4.41392e-06
-6.96165e-08
4.44994e-06
-8.67236e-08
4.49419e-06
-1.06759e-07
4.54822e-06
-1.31042e-07
4.61414e-06
-1.61492e-07
4.69477e-06
-2.00953e-07
4.79371e-06
-2.53668e-07
4.91515e-06
-3.25959e-07
5.06311e-06
-4.27033e-07
5.23932e-06
-5.69633e-07
5.43844e-06
-7.69668e-07
5.63968e-06
-1.04265e-06
-1.39055e-06
5.80155e-06
1.0342e-05
1.12359e-06
1.07373e-05
2.54502e-06
1.09003e-05
3.19283e-06
1.08068e-05
3.32289e-06
1.05226e-05
3.16513e-06
1.01251e-05
2.87411e-06
9.67679e-06
2.54133e-06
9.2199e-06
2.21482e-06
8.77964e-06
1.91627e-06
8.36927e-06
1.65299e-06
7.99456e-06
1.42512e-06
7.6568e-06
1.22965e-06
7.35489e-06
1.06251e-06
7.08649e-06
9.19567e-07
6.84879e-06
7.97035e-07
6.63886e-06
6.91639e-07
6.45388e-06
6.00611e-07
6.29127e-06
5.21646e-07
6.14864e-06
4.52834e-07
6.02388e-06
3.92592e-07
5.91514e-06
3.39609e-07
5.82076e-06
2.92793e-07
5.7393e-06
2.51228e-07
5.66949e-06
2.14141e-07
5.61024e-06
1.80874e-07
5.5606e-06
1.50859e-07
5.51975e-06
1.23604e-07
5.487e-06
9.8672e-08
5.46176e-06
7.56704e-08
5.44356e-06
5.42385e-08
5.43202e-06
3.40355e-08
5.42688e-06
1.4729e-08
5.42797e-06
-4.01709e-09
5.43522e-06
-2.25581e-08
5.44871e-06
-4.12869e-08
5.46863e-06
-6.0658e-08
5.49534e-06
-8.12214e-08
5.52939e-06
-1.03669e-07
5.57157e-06
-1.28901e-07
5.62293e-06
-1.58123e-07
5.68487e-06
-1.92978e-07
5.75912e-06
-2.35743e-07
5.84776e-06
-2.89591e-07
5.95301e-06
-3.58924e-07
6.07679e-06
-4.49737e-07
6.21964e-06
-5.6988e-07
6.37882e-06
-7.2882e-07
6.54541e-06
-9.36249e-07
6.70105e-06
-1.19829e-06
-1.50934e-06
6.81984e-06
1.02416e-05
8.81945e-07
1.06171e-05
2.16959e-06
1.08951e-05
2.91477e-06
1.09957e-05
3.22234e-06
1.09249e-05
3.23595e-06
1.07229e-05
3.07609e-06
1.04357e-05
2.8285e-06
1.01025e-05
2.54804e-06
9.75211e-06
2.26666e-06
9.40398e-06
2.00112e-06
9.07016e-06
1.75894e-06
8.75745e-06
1.54236e-06
8.46915e-06
1.35081e-06
8.20635e-06
1.18237e-06
7.96875e-06
1.03464e-06
7.75529e-06
9.051e-07
7.5645e-06
7.91403e-07
7.39473e-06
6.91414e-07
7.2443e-06
6.0326e-07
7.11158e-06
5.25309e-07
6.99504e-06
4.56156e-07
6.89324e-06
3.94592e-07
6.80489e-06
3.39573e-07
6.72884e-06
2.90197e-07
6.66403e-06
2.45681e-07
6.60955e-06
2.05335e-07
6.56461e-06
1.68552e-07
6.5285e-06
1.34784e-07
6.50063e-06
1.03532e-07
6.48054e-06
7.43344e-08
6.46782e-06
4.67482e-08
6.46221e-06
2.034e-08
6.46353e-06
-5.33038e-09
6.4717e-06
-3.07279e-08
6.48677e-06
-5.63632e-08
6.50894e-06
-8.28212e-08
6.53851e-06
-1.10797e-07
6.57599e-06
-1.41145e-07
6.62203e-06
-1.74948e-07
6.67751e-06
-2.13601e-07
6.74347e-06
-2.58936e-07
6.82109e-06
-3.13366e-07
6.91157e-06
-3.80066e-07
7.0158e-06
-4.63153e-07
7.13386e-06
-5.67799e-07
7.2641e-06
-7.00119e-07
7.40184e-06
-8.66566e-07
7.53801e-06
-1.07241e-06
7.65855e-06
-1.31884e-06
-1.59849e-06
7.7477e-06
1.01727e-05
7.09195e-07
1.0498e-05
1.84433e-06
1.08084e-05
2.60439e-06
1.10139e-05
3.01685e-06
1.10882e-05
3.16161e-06
1.10418e-05
3.12248e-06
1.09008e-05
2.9695e-06
1.06942e-05
2.75463e-06
1.04477e-05
2.51316e-06
1.01815e-05
2.26731e-06
9.91038e-06
2.03009e-06
9.64438e-06
1.80836e-06
9.39006e-06
1.60513e-06
9.15131e-06
1.42112e-06
8.93022e-06
1.25573e-06
8.7276e-06
1.10772e-06
8.54348e-06
9.75527e-07
8.37735e-06
8.57546e-07
8.2284e-06
7.52202e-07
8.09568e-06
6.58029e-07
7.97815e-06
5.7369e-07
7.87476e-06
4.97985e-07
7.78449e-06
4.29837e-07
7.7064e-06
3.68291e-07
7.63959e-06
3.12488e-07
7.58326e-06
2.61663e-07
7.5367e-06
2.1512e-07
7.49925e-06
1.72227e-07
7.47039e-06
1.32396e-07
7.44965e-06
9.50748e-08
7.43667e-06
5.97317e-08
7.43117e-06
2.58404e-08
7.43297e-06
-7.13479e-09
7.442e-06
-3.97583e-08
7.45828e-06
-7.2646e-08
7.48196e-06
-1.06494e-07
7.51327e-06
-1.42115e-07
7.55261e-06
-1.80486e-07
7.60047e-06
-2.22805e-07
7.65744e-06
-2.70569e-07
7.72416e-06
-3.25661e-07
7.80125e-06
-3.90455e-07
7.88909e-06
-4.67904e-07
7.98754e-06
-5.61602e-07
8.09547e-06
-6.75732e-07
8.21014e-06
-8.14781e-07
8.32643e-06
-9.82856e-07
8.43644e-06
-1.18242e-06
8.52997e-06
-1.41237e-06
-1.66573e-06
8.59721e-06
1.01274e-05
5.81805e-07
1.04004e-05
1.57133e-06
1.07033e-05
2.30152e-06
1.09558e-05
2.76433e-06
1.1119e-05
2.99836e-06
1.11846e-05
3.05692e-06
1.1162e-05
2.99214e-06
1.10686e-05
2.84797e-06
1.09237e-05
2.65802e-06
1.07449e-05
2.4462e-06
1.05464e-05
2.22854e-06
1.03396e-05
2.01519e-06
1.01326e-05
1.81213e-06
9.93119e-06
1.62252e-06
9.73923e-06
1.44769e-06
9.55912e-06
1.28782e-06
9.39223e-06
1.14241e-06
9.2392e-06
1.01058e-06
9.10012e-06
8.91279e-07
8.97477e-06
7.83377e-07
8.8627e-06
6.85759e-07
8.76333e-06
5.97354e-07
8.67602e-06
5.17154e-07
8.60008e-06
4.44224e-07
8.53487e-06
3.77699e-07
8.47975e-06
3.16781e-07
8.43414e-06
2.60731e-07
8.39751e-06
2.0886e-07
8.36938e-06
1.60518e-07
8.34938e-06
1.15084e-07
8.33715e-06
7.19536e-08
8.33247e-06
3.05238e-08
8.33516e-06
-9.82043e-09
8.34512e-06
-4.9726e-08
8.36237e-06
-8.98936e-08
8.38698e-06
-1.31105e-07
8.41912e-06
-1.74257e-07
8.45904e-06
-2.204e-07
8.50702e-06
-2.70788e-07
8.56339e-06
-3.26937e-07
8.62841e-06
-3.9068e-07
8.70218e-06
-4.64226e-07
8.78446e-06
-5.50187e-07
8.87442e-06
-6.51558e-07
8.97026e-06
-7.71572e-07
9.06885e-06
-9.13376e-07
9.16542e-06
-1.07942e-06
9.25351e-06
-1.27052e-06
9.3258e-06
-1.48466e-06
-1.7159e-06
9.37597e-06
1.00972e-05
4.84613e-07
1.03247e-05
1.34382e-06
1.06037e-05
2.0225e-06
1.08694e-05
2.49868e-06
1.10812e-05
2.78652e-06
1.12212e-05
2.91696e-06
1.12872e-05
2.9261e-06
1.12869e-05
2.84828e-06
1.12323e-05
2.7126e-06
1.11366e-05
2.54191e-06
1.1012e-05
2.3531e-06
1.08692e-05
2.15807e-06
1.07165e-05
1.96481e-06
1.05606e-05
1.77843e-06
1.04063e-05
1.60192e-06
1.02573e-05
1.43686e-06
1.01159e-05
1.28384e-06
9.98363e-06
1.14284e-06
9.86148e-06
1.01343e-06
9.74991e-06
8.94947e-07
9.64906e-06
7.86611e-07
9.55883e-06
6.87579e-07
9.47899e-06
5.96998e-07
9.40919e-06
5.14027e-07
9.34903e-06
4.37856e-07
9.29811e-06
3.67706e-07
9.256e-06
3.02835e-07
9.22233e-06
2.42535e-07
9.19672e-06
1.86121e-07
9.17888e-06
1.3293e-07
9.16853e-06
8.23062e-08
9.16546e-06
3.35926e-08
9.16952e-06
-1.38855e-08
9.18063e-06
-6.08357e-08
9.19876e-06
-1.08019e-07
9.22393e-06
-1.56275e-07
9.25622e-06
-2.06547e-07
9.29574e-06
-2.59918e-07
9.34259e-06
-3.17644e-07
9.39685e-06
-3.81195e-07
9.45845e-06
-4.52284e-07
9.52712e-06
-5.3289e-07
9.60217e-06
-6.25243e-07
9.68237e-06
-7.31754e-07
9.76564e-06
-8.54845e-07
9.84891e-06
-9.96642e-07
9.92798e-06
-1.15849e-06
9.99775e-06
-1.34029e-06
1.00529e-05
-1.53983e-06
-1.75223e-06
1.00893e-05
1.00765e-05
4.08142e-07
1.02668e-05
1.1535e-06
1.05172e-05
1.77205e-06
1.07777e-05
2.23823e-06
1.10115e-05
2.55273e-06
1.1197e-05
2.73146e-06
1.13254e-05
2.79772e-06
1.13969e-05
2.77675e-06
1.14174e-05
2.69214e-06
1.13953e-05
2.564e-06
1.13399e-05
2.40849e-06
1.126e-05
2.23792e-06
1.11635e-05
2.06135e-06
1.10568e-05
1.88513e-06
1.09452e-05
1.71354e-06
1.08327e-05
1.54932e-06
1.07225e-05
1.39408e-06
1.06167e-05
1.2486e-06
1.0517e-05
1.11314e-06
1.04244e-05
9.87544e-07
1.03396e-05
8.71431e-07
1.02629e-05
7.64257e-07
1.01945e-05
6.65388e-07
1.01344e-05
5.74137e-07
1.00825e-05
4.898e-07
1.00385e-05
4.11665e-07
1.00023e-05
3.39027e-07
9.97365e-06
2.71192e-07
9.9523e-06
2.07473e-07
9.93804e-06
1.4719e-07
9.93068e-06
8.96626e-08
9.93007e-06
3.4201e-08
9.93609e-06
-1.99052e-08
9.94866e-06
-7.34009e-08
9.96772e-06
-1.27082e-07
9.99326e-06
-1.81816e-07
1.00253e-05
-2.38561e-07
1.00638e-05
-2.98395e-07
1.01086e-05
-3.62534e-07
1.01598e-05
-4.32359e-07
1.02169e-05
-5.09424e-07
1.02795e-05
-5.95454e-07
1.03466e-05
-6.92303e-07
1.04167e-05
-8.01867e-07
1.04878e-05
-9.25918e-07
1.0557e-05
-1.06584e-06
1.06207e-05
-1.22228e-06
1.06751e-05
-1.39467e-06
1.07162e-05
-1.58089e-06
-1.777e-06
1.0741e-05
1.00618e-05
3.46391e-07
1.02223e-05
9.92988e-07
1.04446e-05
1.54969e-06
1.06909e-05
1.99191e-06
1.09301e-05
2.31358e-06
1.11405e-05
2.52102e-06
1.13101e-05
2.62818e-06
1.14342e-05
2.65259e-06
1.1514e-05
2.61238e-06
1.15537e-05
2.52427e-06
1.15595e-05
2.40269e-06
1.1538e-05
2.25942e-06
1.14957e-05
2.10369e-06
1.14383e-05
1.94247e-06
1.1371e-05
1.78089e-06
1.12978e-05
1.62251e-06
1.12221e-05
1.46975e-06
1.11466e-05
1.32415e-06
1.10732e-05
1.18654e-06
1.10034e-05
1.05731e-06
1.09384e-05
9.36484e-07
1.08788e-05
8.23852e-07
1.08251e-05
7.19033e-07
1.07777e-05
6.21537e-07
1.07367e-05
5.30801e-07
1.07022e-05
4.46218e-07
1.0674e-05
3.67154e-07
1.06523e-05
2.92959e-07
1.06368e-05
2.22973e-07
1.06274e-05
1.56526e-07
1.06242e-05
9.29358e-08
1.06269e-05
3.15043e-08
1.06354e-05
-2.84917e-08
1.06499e-05
-8.78108e-08
1.067e-05
-1.47259e-07
1.06959e-05
-2.07705e-07
1.07275e-05
-2.70096e-07
1.07645e-05
-3.35471e-07
1.0807e-05
-4.04981e-07
1.08545e-05
-4.7989e-07
1.09067e-05
-5.61577e-07
1.09627e-05
-6.51515e-07
1.10216e-05
-7.51219e-07
1.10819e-05
-8.62155e-07
1.11416e-05
-9.85593e-07
1.11982e-05
-1.1224e-06
1.12487e-05
-1.27278e-06
1.129e-05
-1.43599e-06
1.13192e-05
-1.61009e-06
-1.79193e-06
1.13341e-05
1.00509e-05
2.95445e-07
1.01877e-05
8.56259e-07
1.03845e-05
1.35287e-06
1.0613e-05
1.76338e-06
1.08478e-05
2.07878e-06
1.10692e-05
2.29968e-06
1.12638e-05
2.4335e-06
1.14246e-05
2.49178e-06
1.15492e-05
2.48779e-06
1.16387e-05
2.43483e-06
1.16962e-05
2.34513e-06
1.17263e-05
2.22933e-06
1.17338e-05
2.09622e-06
1.17234e-05
1.95288e-06
1.16995e-05
1.80477e-06
1.1666e-05
1.656e-06
1.16262e-05
1.50957e-06
1.15828e-05
1.36754e-06
1.1538e-05
1.23131e-06
1.14936e-05
1.10171e-06
1.14509e-05
9.79159e-07
1.1411e-05
8.63767e-07
1.13746e-05
7.55424e-07
1.13423e-05
6.5385e-07
1.13145e-05
5.58651e-07
1.12914e-05
4.69346e-07
1.12731e-05
3.85399e-07
1.12598e-05
3.06228e-07
1.12516e-05
2.31223e-07
1.12484e-05
1.59746e-07
1.12502e-05
9.11365e-08
1.1257e-05
2.47101e-08
1.12687e-05
-4.02483e-08
1.12854e-05
-1.04489e-07
1.13069e-05
-1.68806e-07
1.13333e-05
-2.34047e-07
1.13643e-05
-3.01123e-07
1.13999e-05
-3.71019e-07
1.14397e-05
-4.44795e-07
1.14834e-05
-5.23589e-07
1.15304e-05
-6.08605e-07
1.158e-05
-7.01081e-07
1.1631e-05
-8.0224e-07
1.1682e-05
-9.132e-07
1.17313e-05
-1.03486e-06
1.17766e-05
-1.16773e-06
1.18156e-05
-1.31175e-06
1.18457e-05
-1.46612e-06
1.18648e-05
-1.62917e-06
-1.79832e-06
1.18712e-05
1.00428e-05
2.52652e-07
1.01605e-05
7.38596e-07
1.03349e-05
1.17843e-06
1.05449e-05
1.55338e-06
1.077e-05
1.85362e-06
1.09932e-05
2.07656e-06
1.12014e-05
2.22529e-06
1.13863e-05
2.30689e-06
1.15434e-05
2.33069e-06
1.16713e-05
2.30685e-06
1.17712e-05
2.24533e-06
1.18452e-05
2.15529e-06
1.18967e-05
2.04474e-06
1.19291e-05
1.92042e-06
1.19461e-05
1.78778e-06
1.1951e-05
1.65117e-06
1.19466e-05
1.5139e-06
1.19357e-05
1.37844e-06
1.19205e-05
1.24657e-06
1.19027e-05
1.11948e-06
1.18839e-05
9.97935e-07
1.18654e-05
8.82347e-07
1.18479e-05
7.72853e-07
1.18324e-05
6.69384e-07
1.18193e-05
5.71718e-07
1.18092e-05
4.79514e-07
1.18022e-05
3.92344e-07
1.17987e-05
3.09715e-07
1.17989e-05
2.31082e-07
1.18027e-05
1.55859e-07
1.18105e-05
8.34254e-08
1.1822e-05
1.31272e-08
1.18375e-05
-5.57229e-08
1.18569e-05
-1.23848e-07
1.18801e-05
-1.92012e-07
1.19071e-05
-2.61023e-07
1.19377e-05
-3.31741e-07
1.19717e-05
-4.05076e-07
1.20089e-05
-4.81993e-07
1.20488e-05
-5.635e-07
1.20909e-05
-6.50633e-07
1.21342e-05
-7.44423e-07
1.21778e-05
-8.45845e-07
1.22204e-05
-9.55746e-07
1.22602e-05
-1.07475e-06
1.22956e-05
-1.20312e-06
1.23246e-05
-1.34067e-06
1.23451e-05
-1.48661e-06
1.23554e-05
-1.63949e-06
-1.79723e-06
1.23543e-05
1.00365e-05
2.16151e-07
1.01388e-05
6.36312e-07
1.0294e-05
1.02326e-06
1.04861e-05
1.3612e-06
1.06992e-05
1.64061e-06
1.09184e-05
1.85727e-06
1.11322e-05
2.01157e-06
1.13316e-05
2.10743e-06
1.15112e-05
2.15109e-06
1.1668e-05
2.15003e-06
1.18013e-05
2.11211e-06
1.19116e-05
2.04496e-06
1.20008e-05
1.95557e-06
1.20711e-05
1.85006e-06
1.21252e-05
1.73365e-06
1.21658e-05
1.61063e-06
1.21953e-05
1.48444e-06
1.2216e-05
1.35775e-06
1.22299e-05
1.23258e-06
1.2239e-05
1.11042e-06
1.22446e-05
9.92289e-07
1.22482e-05
8.7883e-07
1.22506e-05
7.70405e-07
1.22528e-05
6.67137e-07
1.22556e-05
5.68969e-07
1.22594e-05
4.75697e-07
1.22647e-05
3.87009e-07
1.2272e-05
3.02504e-07
1.22813e-05
2.21717e-07
1.22931e-05
1.44124e-07
1.23073e-05
6.91576e-08
1.23242e-05
-3.78999e-09
1.23439e-05
-7.53639e-08
1.23663e-05
-1.46246e-07
1.23914e-05
-2.17153e-07
1.24192e-05
-2.88843e-07
1.24496e-05
-3.62109e-07
1.24823e-05
-4.37782e-07
1.2517e-05
-5.16725e-07
1.25534e-05
-5.99819e-07
1.25907e-05
-6.87946e-07
1.26282e-05
-7.81957e-07
1.2665e-05
-8.82626e-07
1.26998e-05
-9.90586e-07
1.27313e-05
-1.10626e-06
1.2758e-05
-1.22976e-06
1.27781e-05
-1.36082e-06
1.27902e-05
-1.49869e-06
1.27929e-05
-1.64216e-06
-1.78951e-06
1.27852e-05
1.00316e-05
1.8459e-07
1.01214e-05
5.46513e-07
1.02601e-05
8.84492e-07
1.04359e-05
1.18541e-06
1.0636e-05
1.44053e-06
1.08482e-05
1.64505e-06
1.10621e-05
1.79772e-06
1.12692e-05
1.90031e-06
1.14635e-05
1.95677e-06
1.16411e-05
1.97242e-06
1.18e-05
1.95327e-06
1.19395e-05
1.90548e-06
1.20601e-05
1.83497e-06
1.2163e-05
1.74712e-06
1.22499e-05
1.64671e-06
1.23228e-05
1.53779e-06
1.23835e-05
1.42375e-06
1.24339e-05
1.3073e-06
1.24759e-05
1.1906e-06
1.2511e-05
1.07529e-06
1.25407e-05
9.62564e-07
1.25663e-05
8.53254e-07
1.25888e-05
7.47893e-07
1.26092e-05
6.46766e-07
1.26282e-05
5.49957e-07
1.26465e-05
4.57391e-07
1.26647e-05
3.68864e-07
1.26831e-05
2.84071e-07
1.27022e-05
2.02626e-07
1.27222e-05
1.24076e-07
1.27435e-05
4.79167e-08
1.27661e-05
-2.64057e-08
1.27902e-05
-9.94828e-08
1.28159e-05
-1.71943e-07
1.28432e-05
-2.4445e-07
1.28721e-05
-3.17696e-07
1.29024e-05
-3.92403e-07
1.29339e-05
-4.69319e-07
1.29664e-05
-5.49203e-07
1.29994e-05
-6.32817e-07
1.30323e-05
-7.20907e-07
1.30645e-05
-8.14168e-07
1.30951e-05
-9.13207e-07
1.3123e-05
-1.0185e-06
1.31471e-05
-1.13031e-06
1.3166e-05
-1.24867e-06
1.31784e-05
-1.37326e-06
1.31831e-05
-1.50341e-06
1.31791e-05
-1.63807e-06
-1.77584e-06
1.31654e-05
1.00276e-05
1.56957e-07
1.01072e-05
4.66902e-07
1.02321e-05
7.59614e-07
1.03932e-05
1.02428e-06
1.05806e-05
1.25319e-06
1.07841e-05
1.4415e-06
1.09947e-05
1.58711e-06
1.12047e-05
1.69038e-06
1.14079e-05
1.7536e-06
1.15998e-05
1.78043e-06
1.17778e-05
1.77534e-06
1.19401e-05
1.74318e-06
1.20862e-05
1.68881e-06
1.22165e-05
1.61685e-06
1.23317e-05
1.5315e-06
1.2433e-05
1.43648e-06
1.25218e-05
1.33497e-06
1.25995e-05
1.22962e-06
1.26675e-05
1.12258e-06
1.27273e-05
1.01554e-06
1.278e-05
9.09818e-07
1.28269e-05
8.06346e-07
1.2869e-05
7.05781e-07
1.29073e-05
6.08528e-07
1.29425e-05
5.14786e-07
1.29753e-05
4.24588e-07
1.30063e-05
3.37825e-07
1.30361e-05
2.54282e-07
1.30651e-05
1.7365e-07
1.30936e-05
9.55486e-08
1.3122e-05
1.95366e-08
1.31504e-05
-5.48768e-08
1.31792e-05
-1.28224e-07
1.32083e-05
-2.01075e-07
1.32379e-05
-2.74028e-07
1.32679e-05
-3.4771e-07
1.32983e-05
-4.22767e-07
1.33288e-05
-4.99858e-07
1.33592e-05
-5.79647e-07
1.33892e-05
-6.62784e-07
1.34182e-05
-7.49893e-07
1.34456e-05
-8.41536e-07
1.34706e-05
-9.3819e-07
1.34923e-05
-1.0402e-06
1.35097e-05
-1.14773e-06
1.35217e-05
-1.26073e-06
1.35274e-05
-1.37889e-06
1.35256e-05
-1.5016e-06
1.35155e-05
-1.62797e-06
-1.75683e-06
1.34964e-05
1.00245e-05
1.32474e-07
1.00958e-05
3.9563e-07
1.02089e-05
6.46433e-07
1.03572e-05
8.76035e-07
1.05326e-05
1.0778e-06
1.07269e-05
1.24717e-06
1.09323e-05
1.38169e-06
1.11418e-05
1.48086e-06
1.13496e-05
1.54584e-06
1.1551e-05
1.57903e-06
1.17427e-05
1.58365e-06
1.19224e-05
1.56346e-06
1.20889e-05
1.52233e-06
1.22416e-05
1.46413e-06
1.23806e-05
1.39247e-06
1.25064e-05
1.31064e-06
1.26199e-05
1.22153e-06
1.27219e-05
1.1276e-06
1.28135e-05
1.03093e-06
1.28959e-05
9.33182e-07
1.29701e-05
8.35674e-07
1.3037e-05
7.39402e-07
1.30977e-05
6.45087e-07
1.3153e-05
5.53213e-07
1.32037e-05
4.64061e-07
1.32506e-05
3.77743e-07
1.32942e-05
2.94233e-07
1.33351e-05
2.13389e-07
1.33737e-05
1.34973e-07
1.34106e-05
5.86733e-08
1.3446e-05
-1.58872e-08
1.34803e-05
-8.91368e-08
1.35136e-05
-1.61546e-07
1.35462e-05
-2.33621e-07
1.3578e-05
-3.05895e-07
1.36092e-05
-3.78922e-07
1.36397e-05
-4.53273e-07
1.36694e-05
-5.29523e-07
1.3698e-05
-6.08241e-07
1.37252e-05
-6.89979e-07
1.37506e-05
-7.75249e-07
1.37735e-05
-8.64504e-07
1.37934e-05
-9.58111e-07
1.38096e-05
-1.05631e-06
1.3821e-05
-1.15921e-06
1.3827e-05
-1.26669e-06
1.38266e-05
-1.37846e-06
1.38189e-05
-1.49397e-06
1.38034e-05
-1.61246e-06
-1.73294e-06
1.37796e-05
1.00219e-05
1.10528e-07
1.00864e-05
3.31181e-07
1.01898e-05
5.43042e-07
1.03269e-05
7.3893e-07
1.04914e-05
9.1325e-07
1.06767e-05
1.06191e-06
1.0876e-05
1.18241e-06
1.1083e-05
1.2738e-06
1.12924e-05
1.33647e-06
1.14995e-05
1.37192e-06
1.17008e-05
1.38242e-06
1.18934e-05
1.37078e-06
1.20757e-05
1.34007e-06
1.22464e-05
1.2934e-06
1.24051e-05
1.23383e-06
1.25516e-05
1.16415e-06
1.26862e-05
1.08693e-06
1.28094e-05
1.00438e-06
1.29219e-05
9.18411e-07
1.30245e-05
8.30585e-07
1.3118e-05
7.42172e-07
1.32033e-05
6.54159e-07
1.32811e-05
5.67282e-07
1.33522e-05
4.8206e-07
1.34175e-05
3.9882e-07
1.34775e-05
3.17728e-07
1.35329e-05
2.38815e-07
1.35843e-05
1.61999e-07
1.36321e-05
8.71044e-08
1.36769e-05
1.38772e-08
1.37191e-05
-5.79986e-08
1.37588e-05
-1.28891e-07
1.37965e-05
-1.99208e-07
1.38322e-05
-2.69393e-07
1.38663e-05
-3.39912e-07
1.38986e-05
-4.1125e-07
1.39292e-05
-4.839e-07
1.3958e-05
-5.58356e-07
1.39849e-05
-6.35102e-07
1.40095e-05
-7.14596e-07
1.40315e-05
-7.97257e-07
1.40505e-05
-8.83442e-07
1.40658e-05
-9.73427e-07
1.40768e-05
-1.06738e-06
1.4083e-05
-1.16533e-06
1.40835e-05
-1.26717e-06
1.40776e-05
-1.37259e-06
1.40647e-05
-1.4811e-06
1.40443e-05
-1.59204e-06
-1.70459e-06
1.40159e-05
1.00199e-05
9.06227e-08
1.00788e-05
2.72297e-07
1.01741e-05
4.47779e-07
1.03017e-05
6.11309e-07
1.04567e-05
7.58264e-07
1.06335e-05
8.85113e-07
1.08264e-05
9.89508e-07
1.10299e-05
1.0703e-06
1.12389e-05
1.12744e-06
1.1449e-05
1.16177e-06
1.16566e-05
1.17485e-06
1.18586e-05
1.16875e-06
1.20529e-05
1.14581e-06
1.22378e-05
1.10853e-06
1.24122e-05
1.05936e-06
1.25757e-05
1.00066e-06
1.2728e-05
9.34612e-07
1.28693e-05
8.63137e-07
1.29998e-05
7.87915e-07
1.312e-05
7.10365e-07
1.32305e-05
6.31649e-07
1.3332e-05
5.5269e-07
1.34251e-05
4.74195e-07
1.35105e-05
3.96675e-07
1.35888e-05
3.20469e-07
1.36608e-05
2.45769e-07
1.37269e-05
1.72642e-07
1.37879e-05
1.01047e-07
1.38441e-05
3.0855e-08
1.38962e-05
-3.81368e-08
1.39444e-05
-1.06191e-07
1.39891e-05
-1.7362e-07
1.40306e-05
-2.40773e-07
1.40693e-05
-3.0803e-07
1.41052e-05
-3.75795e-07
1.41384e-05
-4.44482e-07
1.4169e-05
-5.14512e-07
1.4197e-05
-5.86303e-07
1.42221e-05
-6.60256e-07
1.42443e-05
-7.36748e-07
1.42631e-05
-8.16114e-07
1.42783e-05
-8.98629e-07
1.42894e-05
-9.84496e-07
1.42958e-05
-1.07382e-06
1.42971e-05
-1.16659e-06
1.42926e-05
-1.26267e-06
1.42817e-05
-1.36176e-06
1.42641e-05
-1.46344e-06
1.42392e-05
-1.56713e-06
-1.67211e-06
1.42067e-05
1.00183e-05
7.23501e-08
1.00727e-05
2.1791e-07
1.01613e-05
3.59178e-07
1.0281e-05
4.91616e-07
1.04277e-05
6.11502e-07
1.05969e-05
7.15893e-07
1.07837e-05
8.02722e-07
1.09832e-05
8.70833e-07
1.11907e-05
9.19919e-07
1.14021e-05
9.50414e-07
1.16136e-05
9.63348e-07
1.18221e-05
9.60192e-07
1.20252e-05
9.42709e-07
1.22209e-05
9.12813e-07
1.24078e-05
8.72456e-07
1.2585e-05
8.23541e-07
1.27517e-05
7.67846e-07
1.29079e-05
7.06987e-07
1.30534e-05
6.42387e-07
1.31885e-05
5.75263e-07
1.33135e-05
5.06631e-07
1.34289e-05
4.37306e-07
1.35352e-05
3.67924e-07
1.36329e-05
2.98954e-07
1.37227e-05
2.30715e-07
1.3805e-05
1.63398e-07
1.38806e-05
9.70814e-08
1.39499e-05
3.17493e-08
1.40134e-05
-3.26951e-08
1.40717e-05
-9.64147e-08
1.41252e-05
-1.59627e-07
1.41741e-05
-2.22594e-07
1.4219e-05
-2.85612e-07
1.42599e-05
-3.49002e-07
1.42973e-05
-4.13106e-07
1.4331e-05
-4.78273e-07
1.43614e-05
-5.44855e-07
1.43883e-05
-6.13198e-07
1.44117e-05
-6.8363e-07
1.44314e-05
-7.56452e-07
1.44472e-05
-8.31924e-07
1.44588e-05
-9.10254e-07
1.44659e-05
-9.9158e-07
1.4468e-05
-1.07596e-06
1.44648e-05
-1.16334e-06
1.44557e-05
-1.25357e-06
1.44403e-05
-1.34638e-06
1.44182e-05
-1.44137e-06
1.43891e-05
-1.53804e-06
-1.63576e-06
1.43528e-05
1.0017e-05
5.53637e-08
1.00678e-05
1.67096e-07
1.0151e-05
2.7593e-07
1.02643e-05
3.78396e-07
1.04042e-05
4.71598e-07
1.05669e-05
5.5319e-07
1.07481e-05
6.21457e-07
1.09436e-05
6.75357e-07
1.1149e-05
7.14487e-07
1.13604e-05
7.39024e-07
1.15742e-05
7.49615e-07
1.17871e-05
7.47278e-07
1.19965e-05
7.33286e-07
1.22003e-05
7.09062e-07
1.23966e-05
6.76089e-07
1.25843e-05
6.35833e-07
1.27625e-05
5.89693e-07
1.29305e-05
5.38948e-07
1.30882e-05
4.84744e-07
1.32354e-05
4.28069e-07
1.33722e-05
3.69754e-07
1.34991e-05
3.10476e-07
1.36162e-05
2.50765e-07
1.37242e-05
1.91017e-07
1.38234e-05
1.31503e-07
1.39144e-05
7.2389e-08
1.39977e-05
1.3746e-08
1.40739e-05
-4.44356e-08
1.41434e-05
-1.02234e-07
1.42068e-05
-1.59782e-07
1.42645e-05
-2.17263e-07
1.43168e-05
-2.74895e-07
1.43641e-05
-3.32924e-07
1.44067e-05
-3.9162e-07
1.44448e-05
-4.51266e-07
1.44787e-05
-5.12149e-07
1.45084e-05
-5.74558e-07
1.4534e-05
-6.38772e-07
1.45554e-05
-7.0505e-07
1.45726e-05
-7.73628e-07
1.45854e-05
-8.44699e-07
1.45935e-05
-9.18409e-07
1.45968e-05
-9.94842e-07
1.45948e-05
-1.07401e-06
1.45873e-05
-1.15584e-06
1.45739e-05
-1.24017e-06
1.45543e-05
-1.32674e-06
1.45281e-05
-1.41518e-06
1.44951e-05
-1.50504e-06
-1.59578e-06
1.44551e-05
1.0016e-05
3.93637e-08
1.00641e-05
1.19041e-07
1.01431e-05
1.96854e-07
1.02512e-05
2.7028e-07
1.03857e-05
3.37193e-07
1.0543e-05
3.95835e-07
1.07196e-05
4.44887e-07
1.09114e-05
4.83497e-07
1.11146e-05
5.11278e-07
1.13254e-05
5.28259e-07
1.15402e-05
5.34824e-07
1.17558e-05
5.31639e-07
1.19696e-05
5.19572e-07
1.2179e-05
4.99619e-07
1.23822e-05
4.72838e-07
1.25778e-05
4.40288e-07
1.27645e-05
4.0299e-07
1.29416e-05
3.61889e-07
1.31085e-05
3.17833e-07
1.3265e-05
2.71564e-07
1.3411e-05
2.23705e-07
1.35467e-05
1.74766e-07
1.36723e-05
1.25146e-07
1.37882e-05
7.5142e-08
1.38948e-05
2.49567e-08
1.39924e-05
-2.52909e-08
1.40818e-05
-7.5555e-08
1.41632e-05
-1.25853e-07
1.42372e-05
-1.76257e-07
1.43043e-05
-2.26882e-07
1.43649e-05
-2.77882e-07
1.44195e-05
-3.29439e-07
1.44683e-05
-3.81757e-07
1.45117e-05
-4.35056e-07
1.455e-05
-4.89566e-07
1.45834e-05
-5.45518e-07
1.4612e-05
-6.03141e-07
1.46359e-05
-6.62652e-07
1.46551e-05
-7.24249e-07
1.46695e-05
-7.88105e-07
1.46792e-05
-8.54357e-07
1.46839e-05
-9.23096e-07
1.46834e-05
-9.9436e-07
1.46775e-05
-1.06813e-06
1.4666e-05
-1.14429e-06
1.46485e-05
-1.2227e-06
1.46248e-05
-1.30307e-06
1.45947e-05
-1.38509e-06
1.4558e-05
-1.46835e-06
-1.55235e-06
1.45146e-05
1.00153e-05
2.40832e-08
1.00613e-05
7.30103e-08
1.01373e-05
1.20858e-07
1.02416e-05
1.65973e-07
1.03719e-05
2.06947e-07
1.05251e-05
2.42601e-07
1.06979e-05
2.72032e-07
1.08868e-05
2.94636e-07
1.1088e-05
3.10104e-07
1.12978e-05
3.18404e-07
1.15129e-05
3.19734e-07
1.17301e-05
3.14485e-07
1.19465e-05
3.03185e-07
1.21596e-05
2.86455e-07
1.23675e-05
2.64962e-07
1.25684e-05
2.39382e-07
1.2761e-05
2.10368e-07
1.29444e-05
1.7853e-07
1.31178e-05
1.44414e-07
1.32809e-05
1.08499e-07
1.34334e-05
7.11852e-08
1.35754e-05
3.2796e-08
1.37069e-05
-6.41865e-09
1.38284e-05
-4.62791e-08
1.394e-05
-8.66701e-08
1.40422e-05
-1.27534e-07
1.41355e-05
-1.68864e-07
1.42204e-05
-2.10698e-07
1.42972e-05
-2.53112e-07
1.43666e-05
-2.9621e-07
1.44288e-05
-3.40127e-07
1.44844e-05
-3.85012e-07
1.45337e-05
-4.31034e-07
1.4577e-05
-4.78367e-07
1.46146e-05
-5.27193e-07
1.46468e-05
-5.7769e-07
1.46737e-05
-6.30033e-07
1.46954e-05
-6.84381e-07
1.4712e-05
-7.40876e-07
1.47235e-05
-7.99636e-07
1.47299e-05
-8.60744e-07
1.47311e-05
-9.24245e-07
1.47269e-05
-9.90136e-07
1.47171e-05
-1.05836e-06
1.47016e-05
-1.1288e-06
1.46802e-05
-1.20128e-06
1.46526e-05
-1.27554e-06
1.46188e-05
-1.35127e-06
1.45786e-05
-1.42811e-06
-1.50561e-06
1.45319e-05
1.00148e-05
9.27847e-09
1.00595e-05
2.83236e-08
1.01334e-05
4.69226e-08
1.02352e-05
6.42334e-08
1.03626e-05
7.95362e-08
1.0513e-05
9.22223e-08
1.06832e-05
1.01816e-07
1.08698e-05
1.07989e-07
1.10694e-05
1.10559e-07
1.12783e-05
1.09475e-07
1.14932e-05
1.04808e-07
1.1711e-05
9.6719e-08
1.19287e-05
8.54422e-08
1.21439e-05
7.12562e-08
1.23544e-05
5.44642e-08
1.25584e-05
3.5374e-08
1.27545e-05
1.42826e-08
1.29416e-05
-8.53595e-09
1.31188e-05
-3.28388e-08
1.32858e-05
-5.84197e-08
1.34421e-05
-8.51121e-08
1.35876e-05
-1.12789e-07
1.37226e-05
-1.41364e-07
1.38471e-05
-1.70785e-07
1.39615e-05
-2.01038e-07
1.40661e-05
-2.32135e-07
1.41613e-05
-2.6412e-07
1.42477e-05
-2.97059e-07
1.43256e-05
-3.31038e-07
1.43956e-05
-3.66159e-07
1.4458e-05
-4.02539e-07
1.45133e-05
-4.40305e-07
1.45618e-05
-4.79589e-07
1.4604e-05
-5.20527e-07
1.464e-05
-5.63255e-07
1.46702e-05
-6.07903e-07
1.46948e-05
-6.54593e-07
1.47139e-05
-7.03435e-07
1.47275e-05
-7.54518e-07
1.47358e-05
-8.07909e-07
1.47387e-05
-8.63644e-07
1.47362e-05
-9.21725e-07
1.47281e-05
-9.82113e-07
1.47145e-05
-1.04472e-06
1.46951e-05
-1.10942e-06
1.46698e-05
-1.17601e-06
1.46386e-05
-1.24425e-06
1.46011e-05
-1.31386e-06
1.45575e-05
-1.38447e-06
-1.4557e-06
1.45076e-05
1.00146e-05
-5.27983e-09
1.00585e-05
-1.56628e-08
1.01314e-05