/*--------------------------------*- C++ -*----------------------------------*\
| =========                 |                                                 |
| \\      /  F ield         | OpenFOAM: The Open Source CFD Toolbox           |
|  \\    /   O peration     | Version:  2306                                  |
|   \\  /    A nd           | Website:  www.openfoam.com                      |
|    \\/     M anipulation  |                                                 |
\*---------------------------------------------------------------------------*/
FoamFile
{
    version     2.0;
    format      ascii;
    arch        "LSB;label=32;scalar=64";
    class       surfaceScalarField;
    location    "0.21";
    object      phi;
}
// * * * * * * * * * * * * * * * * * * * * * * * * * * * * * * * * * * * * * //

dimensions      [0 3 -1 0 0 0 0];

oriented        oriented;

internalField   nonuniform List<scalar> 
890
(
8.50914e-05
1.49086e-05
7.26704e-05
1.2421e-05
6.71608e-05
5.50965e-06
6.78825e-05
-7.21677e-07
-9.59371e-06
7.74762e-05
0.0001097
5.20843e-06
0.000117543
4.57797e-06
0.000122406
6.47218e-07
0.000126115
-4.43123e-06
-1.13805e-05
0.000127902
0.00011182
-6.61146e-06
0.000124952
-8.55406e-06
0.000133372
-7.77296e-06
0.000137101
-8.15968e-06
-1.04737e-05
0.000136194
0.000109058
-1.56699e-05
0.000115017
-1.45123e-05
0.000116577
-9.33351e-06
0.000114863
-6.44585e-06
-5.61343e-06
0.000110003
8.43301e-05
6.98178e-05
6.04843e-05
5.40384e-05
4.8425e-05
-1.60824e-06
1.60824e-06
-2.48211e-06
8.73871e-07
-1.76109e-06
-7.21016e-07
2.28867e-07
-1.98996e-06
2.8981e-06
-2.66924e-06
5.74e-06
-2.8419e-06
8.38544e-06
-2.64544e-06
1.06287e-05
-2.24325e-06
1.23944e-05
-1.76568e-06
1.36928e-05
-1.29847e-06
1.45819e-05
-8.89065e-07
1.5139e-05
-5.57044e-07
1.54432e-05
-3.04197e-07
1.55658e-05
-1.22664e-07
1.55662e-05
-3.51046e-10
1.54913e-05
7.48998e-08
1.53758e-05
1.15425e-07
1.52453e-05
1.30592e-07
1.51168e-05
1.2849e-07
1.50011e-05
1.15652e-07
1.4904e-05
9.71118e-08
1.48274e-05
7.66086e-08
1.47706e-05
5.67604e-08
1.47314e-05
3.9217e-08
1.47066e-05
2.48267e-08
1.46928e-05
1.38177e-08
1.46868e-05
5.98499e-09
1.46859e-05
8.64572e-10
1.4688e-05
-2.1205e-09
1.46916e-05
-3.55586e-09
1.46956e-05
-3.9541e-09
1.46993e-05
-3.72854e-09
1.47025e-05
-3.18657e-09
1.4705e-05
-2.53592e-09
1.47069e-05
-1.90279e-09
1.47083e-05
-1.35307e-09
1.47092e-05
-9.11884e-10
1.47098e-05
-5.79401e-10
1.47101e-05
-3.4267e-10
1.47103e-05
-1.83563e-10
1.47104e-05
-8.36346e-11
1.47104e-05
-2.67388e-11
1.47104e-05
-4.35773e-13
1.47104e-05
5.38539e-12
-2.36917e-12
-1.91326e-06
3.52149e-06
-1.45652e-06
4.17137e-07
1.65903e-06
-3.83657e-06
6.6039e-06
-6.93482e-06
1.24169e-05
-8.48227e-06
1.82838e-05
-8.70876e-06
2.36677e-05
-8.02935e-06
2.8273e-05
-6.84852e-06
3.19886e-05
-5.48129e-06
3.48286e-05
-4.13843e-06
3.6881e-05
-2.94156e-06
3.82701e-05
-1.94612e-06
3.91296e-05
-1.16366e-06
3.95869e-05
-5.79946e-07
3.97546e-05
-1.68111e-07
3.97272e-05
1.0231e-07
3.95792e-05
2.63402e-07
3.93686e-05
3.41227e-07
3.91375e-05
3.5963e-07
3.89144e-05
3.38689e-07
3.8717e-05
2.94548e-07
3.85539e-05
2.3969e-07
3.84275e-05
1.83217e-07
3.83355e-05
1.31192e-07
3.82732e-05
8.70798e-08
3.82348e-05
5.22772e-08
3.82141e-05
2.66831e-08
3.82057e-05
9.24437e-09
3.82051e-05
-1.55656e-09
3.8209e-05
-7.39703e-09
3.82148e-05
-9.78275e-09
3.8221e-05
-9.97897e-09
3.82268e-05
-8.95621e-09
3.82317e-05
-7.394e-09
3.82355e-05
-5.72606e-09
3.82383e-05
-4.19796e-09
3.82404e-05
-2.92328e-09
3.82417e-05
-1.93115e-09
3.82426e-05
-1.20275e-09
3.82431e-05
-6.9686e-10
3.82434e-05
-3.66037e-10
3.82435e-05
-1.65925e-10
3.82436e-05
-5.96028e-11
3.82436e-05
-1.84206e-11
-1.8874e-11
5.3906e-09
3.5161e-06
3.86509e-06
-3.44256e-06
1.04183e-05
-1.03898e-05
1.80581e-05
-1.45746e-05
2.57242e-05
-1.61484e-05
3.28121e-05
-1.57966e-05
3.90001e-05
-1.42174e-05
4.41588e-05
-1.20072e-05
4.82852e-05
-9.6077e-06
5.14543e-05
-7.3075e-06
5.37831e-05
-5.27041e-06
5.54064e-05
-3.56944e-06
5.64602e-05
-2.21745e-06
5.7072e-05
-1.19176e-06
5.73558e-05
-4.51822e-07
5.7409e-05
4.90713e-08
5.73099e-05
3.62491e-07
5.71233e-05
5.27869e-07
5.68976e-05
5.85266e-07
5.66676e-05
5.68714e-07
5.64559e-05
5.06283e-07
5.62753e-05
4.20294e-07
5.6131e-05
3.27496e-07
5.60227e-05
2.39425e-07
5.59468e-05
1.63039e-07
5.58975e-05
1.01559e-07
5.58688e-05
5.54274e-08
5.58547e-05
2.32592e-08
5.58505e-05
2.70149e-09
5.58521e-05
-9.02442e-09
5.58568e-05
-1.44344e-08
5.58625e-05
-1.57385e-08
5.58682e-05
-1.4653e-08
5.58732e-05
-1.24066e-08
5.58773e-05
-9.80467e-09
5.58804e-05
-7.32132e-09
5.58827e-05
-5.19348e-09
5.58843e-05
-3.50238e-09
5.58853e-05
-2.23755e-09
5.5886e-05
-1.34249e-09
5.58863e-05
-7.4438e-10
5.58865e-05
-3.71594e-10
5.58867e-05
-1.6244e-10
5.58867e-05
-6.77578e-11
-4.8156e-11
5.93296e-06
-2.41686e-06
1.55503e-05
-1.30599e-05
2.59185e-05
-2.07579e-05
3.52825e-05
-2.39387e-05
4.32023e-05
-2.40682e-05
4.96833e-05
-2.22776e-05
5.48648e-05
-1.93988e-05
5.89221e-05
-1.60645e-05
6.20325e-05
-1.27181e-05
6.43604e-05
-9.63536e-06
6.60511e-05
-6.96114e-06
6.72304e-05
-4.74871e-06
6.80057e-05
-2.99275e-06
6.84685e-05
-1.6546e-06
6.86965e-05
-6.79807e-07
6.87596e-05
-1.40553e-08
6.87043e-05
4.17801e-07
6.85801e-05
6.52037e-07
6.84217e-05
7.43724e-07
6.82549e-05
7.35504e-07
6.80976e-05
6.63547e-07
6.79607e-05
5.5723e-07
6.78492e-05
4.39026e-07
6.77638e-05
3.24762e-07
6.77026e-05
2.24275e-07
6.76617e-05
1.4242e-07
6.76369e-05
8.02731e-08
6.76238e-05
3.63678e-08
6.76186e-05
7.83422e-09
6.76185e-05
-8.88077e-09
6.76211e-05
-1.70248e-08
6.76249e-05
-1.95021e-08
6.76288e-05
-1.86125e-08
6.76324e-05
-1.60153e-08
6.76354e-05
-1.28139e-08
6.76378e-05
-9.67194e-09
6.76395e-05
-6.93302e-09
6.76407e-05
-4.72826e-09
6.76416e-05
-3.06114e-09
6.76421e-05
-1.86883e-09
6.76424e-05
-1.06265e-09
6.76426e-05
-5.5232e-10
6.76427e-05
-2.58459e-10
6.76427e-05
-1.16861e-10
-7.67181e-11
2.23136e-05
-2.47305e-05
3.92606e-05
-3.00069e-05
5.07217e-05
-3.22191e-05
5.86794e-05
-3.18964e-05
6.40971e-05
-2.94859e-05
6.76974e-05
-2.58779e-05
7.00485e-05
-2.17499e-05
7.15622e-05
-1.75782e-05
7.25266e-05
-1.36825e-05
7.31372e-05
-1.02459e-05
7.35215e-05
-7.34544e-06
7.37592e-05
-4.98643e-06
7.38986e-05
-3.13222e-06
7.39693e-05
-1.72521e-06
7.39898e-05
-7.00394e-07
7.39757e-05
1.27393e-10
7.39347e-05
4.58725e-07
7.38786e-05
7.08204e-07
7.38152e-05
8.07073e-07
7.37514e-05
7.99326e-07
7.36921e-05
7.22806e-07
7.36407e-05
6.08664e-07
7.35987e-05
4.81032e-07
7.35664e-05
3.57096e-07
7.3543e-05
2.47676e-07
7.35272e-05
1.58218e-07
7.35174e-05
9.00455e-08
7.35121e-05
4.16832e-08
7.35098e-05
1.00861e-08
7.35095e-05
-8.57067e-09
7.35103e-05
-1.7812e-08
7.35116e-05
-2.0785e-08
7.3513e-05
-2.00128e-08
7.35143e-05
-1.73165e-08
7.35154e-05
-1.39132e-08
7.35163e-05
-1.05393e-08
7.35169e-05
-7.5807e-09
7.35174e-05
-5.18871e-09
7.35177e-05
-3.3734e-09
7.35179e-05
-2.07058e-09
7.3518e-05
-1.18633e-09
7.35181e-05
-6.23844e-10
7.35181e-05
-2.97382e-10
7.35181e-05
-1.37289e-10
-8.85793e-11
7.98064e-05
-2.70607e-05
8.32771e-05
-3.34776e-05
8.50753e-05
-3.40172e-05
8.532e-05
-3.21412e-05
8.44908e-05
-2.86566e-05
8.29839e-05
-2.4371e-05
8.11694e-05
-1.99355e-05
7.93414e-05
-1.57502e-05
7.76883e-05
-1.20293e-05
7.63056e-05
-8.86325e-06
7.52214e-05
-6.26127e-06
7.44207e-05
-4.18573e-06
7.38652e-05
-2.57674e-06
7.35077e-05
-1.36773e-06
7.33015e-05
-4.94193e-07
7.31985e-05
1.0313e-07
7.31736e-05
4.83601e-07
7.31933e-05
6.88505e-07
7.32376e-05
7.62802e-07
7.3292e-05
7.44975e-07
7.33468e-05
6.68014e-07
7.33962e-05
5.59219e-07
7.34374e-05
4.39845e-07
7.34694e-05
3.25049e-07
7.34928e-05
2.24331e-07
7.35086e-05
1.42384e-07
7.35185e-05
8.02083e-08
7.35238e-05
3.63027e-08
7.35261e-05
7.78063e-09
7.35265e-05
-8.92103e-09
7.35257e-05
-1.70521e-08
7.35245e-05
-1.95193e-08
7.35231e-05
-1.86226e-08
7.35218e-05
-1.60207e-08
7.35207e-05
-1.28166e-08
7.35198e-05
-9.67308e-09
7.35192e-05
-6.93339e-09
7.35187e-05
-4.7283e-09
7.35184e-05
-3.06105e-09
7.35182e-05
-1.86871e-09
7.35181e-05
-1.06255e-09
7.3518e-05
-5.52247e-10
7.3518e-05
-2.58413e-10
7.35179e-05
-1.16841e-10
-7.6718e-11
0.000122529
-2.16883e-05
0.0001159
-2.68477e-05
0.000108969
-2.70862e-05
0.000101828
-2.5001e-05
9.49411e-05
-2.17693e-05
8.86547e-05
-1.80847e-05
8.31735e-05
-1.44543e-05
7.85953e-05
-1.11719e-05
7.49254e-05
-8.35942e-06
7.20996e-05
-6.03745e-06
7.0013e-05
-4.17467e-06
6.8544e-05
-2.71682e-06
6.7571e-05
-1.60369e-06
6.69812e-05
-7.77982e-07
6.6676e-05
-1.8894e-07
6.65711e-05
2.08032e-07
6.66024e-05
4.52305e-07
6.67147e-05
5.76211e-07
6.68675e-05
6.09997e-07
6.70317e-05
5.80742e-07
6.71879e-05
5.11855e-07
6.73244e-05
4.22747e-07
6.74357e-05
3.285e-07
6.7521e-05
2.39775e-07
6.75822e-05
1.63102e-07
6.76231e-05
1.01505e-07
6.7648e-05
5.5335e-08
6.76611e-05
2.31667e-08
6.76662e-05
2.62546e-09
6.76664e-05
-9.08135e-09
6.76638e-05
-1.44728e-08
6.76601e-05
-1.57624e-08
6.76561e-05
-1.46667e-08
6.76525e-05
-1.24138e-08
6.76495e-05
-9.80806e-09
6.76471e-05
-7.32266e-09
6.76454e-05
-5.19383e-09
6.76442e-05
-3.50231e-09
6.76434e-05
-2.23735e-09
6.76428e-05
-1.34228e-09
6.76425e-05
-7.44209e-10
6.76423e-05
-3.71469e-10
6.76422e-05
-1.62362e-10
6.76422e-05
-6.77196e-11
-4.81519e-11
0.000129036
-1.45305e-05
0.000118848
-1.666e-05
0.000107954
-1.61918e-05
9.73349e-05
-1.43819e-05
8.76615e-05
-1.2096e-05
7.93265e-05
-9.74962e-06
7.24537e-05
-7.58156e-06
6.69941e-05
-5.71225e-06
6.28047e-05
-4.17011e-06
5.97016e-05
-2.93434e-06
5.74928e-05
-1.96578e-06
5.59978e-05
-1.22182e-06
5.50569e-05
-6.62831e-07
5.45336e-05
-2.5464e-07
5.43136e-05
3.09657e-08
5.43039e-05
2.17789e-07
5.44298e-05
3.26382e-07
5.46323e-05
3.73731e-07
5.48667e-05
3.75568e-07
5.51013e-05
3.46151e-07
5.53153e-05
2.97913e-07
5.54968e-05
2.41158e-07
5.56415e-05
1.83826e-07
5.57499e-05
1.31409e-07
5.58259e-05
8.71154e-08
5.58751e-05
5.22325e-08
5.59039e-05
2.66106e-08
5.59179e-05
9.17157e-09
5.59221e-05
-1.6164e-09
5.59205e-05
-7.4413e-09
5.59158e-05
-9.81208e-09
5.591e-05
-9.99673e-09
5.59043e-05
-8.96602e-09
5.58993e-05
-7.39886e-09
5.58952e-05
-5.72811e-09
5.58921e-05
-4.19859e-09
5.58898e-05
-2.92327e-09
5.58883e-05
-1.93091e-09
5.58872e-05
-1.20248e-09
5.58866e-05
-6.96626e-10
5.58862e-05
-3.65853e-10
5.5886e-05
-1.65791e-10
5.58859e-05
-5.95263e-11
5.58859e-05
-1.83716e-11
-1.88614e-11
0.000101472
-5.9997e-06
9.09023e-05
-6.08991e-06
8.01877e-05
-5.47727e-06
7.03578e-05
-4.55205e-06
6.18827e-05
-3.62083e-06
5.49205e-05
-2.78745e-06
4.94219e-05
-2.08296e-06
4.52222e-05
-1.51249e-06
4.21155e-05
-1.06348e-06
3.98973e-05
-7.16133e-07
3.83827e-05
-4.51133e-07
3.74129e-05
-2.5207e-07
3.68558e-05
-1.05681e-07
3.66023e-05
-1.1106e-09
3.65641e-05
6.91375e-08
3.66694e-05
1.12475e-07
3.68615e-05
1.34321e-07
3.70957e-05
1.39482e-07
3.73388e-05
1.32442e-07
3.75676e-05
1.17347e-07
3.77677e-05
9.78424e-08
3.79319e-05
7.69383e-08
3.80588e-05
5.6913e-08
3.8151e-05
3.92789e-08
3.82132e-05
2.48369e-08
3.82517e-05
1.38e-08
3.82723e-05
5.95626e-09
3.82807e-05
8.35549e-10
3.82812e-05
-2.14425e-09
3.82773e-05
-3.57287e-09
3.82715e-05
-3.96493e-09
3.82652e-05
-3.73469e-09
3.82594e-05
-3.18964e-09
3.82546e-05
-2.53718e-09
3.82508e-05
-1.90311e-09
3.82479e-05
-1.35297e-09
3.82459e-05
-9.11638e-10
3.82445e-05
-5.7914e-10
3.82437e-05
-3.42443e-10
3.82432e-05
-1.83378e-10
3.82429e-05
-8.34874e-11
3.82428e-05
-2.66158e-11
3.82427e-05
-4.06405e-13
3.82427e-05
5.44674e-12
-2.35004e-12
4.24253e-05
3.63354e-05
3.08581e-05
2.63061e-05
2.26852e-05
1.98978e-05
1.78148e-05
1.63024e-05
1.52389e-05
1.45227e-05
1.40716e-05
1.38195e-05
1.37139e-05
1.37127e-05
1.37819e-05
1.38944e-05
1.40287e-05
1.41682e-05
1.43006e-05
1.44179e-05
1.45158e-05
1.45927e-05
1.46496e-05
1.46889e-05
1.47138e-05
1.47276e-05
1.47335e-05
1.47343e-05
1.47322e-05
1.47286e-05
1.47247e-05
1.47209e-05
1.47177e-05
1.47152e-05
1.47133e-05
1.4712e-05
1.4711e-05
1.47105e-05
1.47101e-05
1.47099e-05
1.47099e-05
1.47098e-05
1.47098e-05
1.47098e-05
)
;

boundaryField
{
    fixedWalls
    {
        type            calculated;
        value           uniform 0;
    }
    inflowWall
    {
        type            calculated;
        value           nonuniform List<scalar> 5(-0.0001 -0.0001 -0.0001 -0.0001 -0.0001);
    }
    outflowWall
    {
        type            calculated;
        value           nonuniform List<scalar> 10(1.47104e-05 3.82436e-05 5.58867e-05 6.76428e-05 7.35181e-05 7.35179e-05 6.76422e-05 5.58858e-05 3.82427e-05 1.47098e-05);
    }
    frontAndBack
    {
        type            empty;
        value           nonuniform List<scalar> 0();
    }
}


// ************************************************************************* //
