/*--------------------------------*- C++ -*----------------------------------*\
| =========                 |                                                 |
| \\      /  F ield         | OpenFOAM: The Open Source CFD Toolbox           |
|  \\    /   O peration     | Version:  2306                                  |
|   \\  /    A nd           | Website:  www.openfoam.com                      |
|    \\/     M anipulation  |                                                 |
\*---------------------------------------------------------------------------*/
FoamFile
{
    version     2.0;
    format      ascii;
    arch        "LSB;label=32;scalar=64";
    class       volScalarField;
    location    "4";
    object      p;
}
// * * * * * * * * * * * * * * * * * * * * * * * * * * * * * * * * * * * * * //

dimensions      [0 2 -2 0 0 0 0];

internalField   nonuniform List<scalar> 
1900
(
0.05703
0.0328065
0.0124121
-0.00293218
-0.013957
-0.0245202
-0.0349718
-0.047151
-0.0597245
-0.0738045
0.0277693
0.0195702
0.00825222
-0.00330362
-0.0143329
-0.0245271
-0.034969
-0.045493
-0.0570026
-0.0680675
0.0186781
0.014187
0.00667014
-0.00269997
-0.0127862
-0.0227682
-0.0325506
-0.0421066
-0.0515375
-0.0606287
0.0129789
0.00990528
0.00425485
-0.00339444
-0.0122473
-0.021489
-0.0306819
-0.0395978
-0.0481931
-0.056354
0.0107569
0.00822154
0.00348281
-0.00316528
-0.011144
-0.0197472
-0.0284216
-0.0368442
-0.0448646
-0.0523934
0.0113934
0.00891282
0.00430253
-0.00216184
-0.00989932
-0.0182014
-0.0265091
-0.0345049
-0.0420643
-0.0491583
0.014851
0.0119054
0.0066252
-0.000456465
-0.00851456
-0.0167985
-0.0248423
-0.0324685
-0.0396687
-0.0464775
0.0215518
0.0172569
0.0103605
0.00189381
-0.00692306
-0.0153432
-0.0231709
-0.0304994
-0.037478
-0.0441686
0.0316941
0.0235958
0.0131615
0.00270344
-0.00659949
-0.0147057
-0.0220675
-0.0291072
-0.0359881
-0.0426698
0.060545
0.0378736
0.0181688
0.0041094
-0.00554336
-0.0132324
-0.0204535
-0.0276616
-0.0348064
-0.0416821
-0.0970392
-0.0970727
-0.0971175
-0.0971716
-0.0972319
-0.0972981
-0.0973696
-0.0974456
-0.0975245
-0.097605
-0.0976853
-0.0977639
-0.0978391
-0.0979092
-0.0979726
-0.0980279
-0.0980735
-0.0981082
-0.0981307
-0.0981401
-0.0981353
-0.0981157
-0.0980808
-0.09803
-0.097963
-0.0978797
-0.09778
-0.0976637
-0.0975309
-0.0973818
-0.0972165
-0.0970354
-0.096839
-0.0966278
-0.0964024
-0.0961625
-0.0959063
-0.0956293
-0.0953232
-0.0949736
-0.0945595
-0.0940527
-0.0934182
-0.0926161
-0.0916029
-0.0903312
-0.088749
-0.0867954
-0.0844
-0.0814844
-0.0779654
-0.0737597
-0.0687995
-0.0630471
-0.0564963
-0.0491906
-0.0412028
-0.0326365
-0.0236297
-0.0143502
-0.00498342
0.00428092
0.0132542
0.021758
0.0296317
0.0367417
0.04298
0.0482785
0.052593
0.0559167
0.0582602
0.059668
0.0601912
0.0599081
0.0588904
0.0572302
0.0550039
0.0523043
0.0491981
0.0457677
0.0420619
0.0381491
0.0340554
0.0298363
0.025492
0.0210707
0.0165414
0.0119599
0.00724688
0.00250056
-0.0970348
-0.0970664
-0.0970934
-0.097135
-0.0971863
-0.0972459
-0.0973122
-0.0973837
-0.0974587
-0.0975358
-0.0976133
-0.0976895
-0.0977627
-0.0978312
-0.0978934
-0.0979476
-0.0979924
-0.0980265
-0.0980484
-0.0980572
-0.0980519
-0.0980316
-0.0979957
-0.0979436
-0.0978749
-0.0977894
-0.0976868
-0.097567
-0.0974299
-0.0972753
-0.0971032
-0.0969135
-0.096706
-0.0964806
-0.0962369
-0.0959739
-0.0956896
-0.0953803
-0.0950389
-0.0946548
-0.0942126
-0.0936915
-0.093065
-0.0923005
-0.0913591
-0.0901943
-0.0887506
-0.0869601
-0.0847381
-0.0819883
-0.0786098
-0.0745126
-0.0696428
-0.063996
-0.057555
-0.0503304
-0.0423874
-0.0338402
-0.0248318
-0.0155338
-0.00613629
0.00316726
0.0121796
0.0207206
0.0286302
0.0357731
0.0420319
0.0473511
0.0516832
0.0550239
0.0573814
0.058804
0.0593405
0.0590741
0.0580753
0.0564422
0.0542446
0.0515811
0.04851
0.0451233
0.041458
0.0375956
0.0335467
0.029384
0.0250887
0.0207296
0.0162543
0.0117337
0.00708774
0.00242542
-0.0969171
-0.0969984
-0.0970439
-0.0970975
-0.0971538
-0.0972154
-0.0972834
-0.0973567
-0.0974339
-0.0975136
-0.097594
-0.0976733
-0.0977498
-0.0978216
-0.0978871
-0.0979445
-0.0979924
-0.0980292
-0.0980536
-0.0980643
-0.0980604
-0.0980409
-0.0980054
-0.0979531
-0.0978839
-0.0977974
-0.0976936
-0.0975725
-0.0974342
-0.0972788
-0.0971062
-0.0969161
-0.096708
-0.0964813
-0.0962351
-0.0959679
-0.0956772
-0.0953596
-0.0950099
-0.0946216
-0.0941858
-0.0936899
-0.0931163
-0.0924401
-0.0916248
-0.0906185
-0.0893549
-0.0877533
-0.0857135
-0.0831301
-0.0799144
-0.0759707
-0.0712127
-0.0655934
-0.0591314
-0.0518731
-0.0438963
-0.0353185
-0.0262788
-0.0169484
-0.00754921
0.00174467
0.0107415
0.0192662
0.0271508
0.0342667
0.0404993
0.0457892
0.0500904
0.0534033
0.0557366
0.0571436
0.0576726
0.0574116
0.0564274
0.0548227
0.0526637
0.0500537
0.0470463
0.0437374
0.0401595
0.0363972
0.0324578
0.0284152
0.02425
0.0200287
0.0157048
0.0113435
0.00687745
0.00238291
-0.0969995
-0.0970731
-0.0970773
-0.0971032
-0.0971488
-0.097211
-0.0972844
-0.0973652
-0.0974506
-0.0975388
-0.0976275
-0.0977147
-0.0977985
-0.0978769
-0.0979481
-0.0980105
-0.0980624
-0.0981023
-0.0981289
-0.098141
-0.0981375
-0.0981177
-0.098081
-0.0980269
-0.0979551
-0.0978654
-0.0977579
-0.097633
-0.0974907
-0.0973313
-0.0971549
-0.096961
-0.0967489
-0.0965171
-0.0962645
-0.09599
-0.0956921
-0.0953697
-0.0950205
-0.0946411
-0.0942254
-0.0937659
-0.0932513
-0.0926597
-0.0919523
-0.0910682
-0.0899284
-0.0884602
-0.0865504
-0.0840781
-0.0809309
-0.0770343
-0.0723114
-0.0667365
-0.0603144
-0.0530952
-0.0451626
-0.0366403
-0.0276762
-0.0184485
-0.00916029
5.53915e-07
0.0088439
0.0171994
0.024905
0.0318395
0.0378972
0.0430212
0.0471709
0.0503518
0.0525776
0.0539051
0.0543856
0.0541079
0.0531397
0.0515825
0.0495027
0.0470005
0.0441293
0.04098
0.0375861
0.0340256
0.0303092
0.0265024
0.0225933
0.0186377
0.0146017
0.0105359
0.00638593
0.00220209
-0.0966727
-0.0968781
-0.0969689
-0.097073
-0.0971718
-0.0972651
-0.0973578
-0.097453
-0.0975507
-0.097649
-0.0977464
-0.0978408
-0.0979304
-0.0980134
-0.098088
-0.0981525
-0.0982055
-0.0982454
-0.0982709
-0.0982806
-0.0982738
-0.0982497
-0.0982079
-0.0981482
-0.0980704
-0.0979746
-0.0978611
-0.0977305
-0.0975833
-0.0974199
-0.0972403
-0.0970442
-0.0968302
-0.0965965
-0.0963415
-0.0960646
-0.0957654
-0.0954436
-0.0950987
-0.0947292
-0.0943303
-0.0938943
-0.0934157
-0.0928704
-0.0922171
-0.0913857
-0.0902933
-0.0888387
-0.0869332
-0.084464
-0.0813229
-0.0774294
-0.072721
-0.0671762
-0.060808
-0.0536728
-0.0458611
-0.0375
-0.0287431
-0.0197661
-0.0107616
-0.00191803
0.00658174
0.0145755
0.0219147
0.0284866
0.0341992
0.0390029
0.0428678
0.0458052
0.0478372
0.0490227
0.049418
0.0491095
0.0481671
0.0466863
0.0447347
0.0424036
0.0397478
0.0368474
0.0337387
0.0304879
0.0271113
0.0236617
0.0201363
0.0165771
0.0129638
0.00933122
0.00564406
0.00193764
-0.097505
-0.0975274
-0.0974261
-0.097381
-0.0973915
-0.0974494
-0.0975374
-0.0976384
-0.0977416
-0.0978436
-0.0979423
-0.0980362
-0.0981234
-0.0982026
-0.0982723
-0.098331
-0.0983774
-0.0984102
-0.098428
-0.0984298
-0.0984146
-0.0983822
-0.0983323
-0.0982649
-0.0981798
-0.0980772
-0.0979576
-0.0978218
-0.0976705
-0.0975041
-0.0973225
-0.0971252
-0.0969105
-0.0966758
-0.0964204
-0.0961459
-0.0958508
-0.095534
-0.0951951
-0.0948328
-0.094442
-0.0940099
-0.0935169
-0.0929453
-0.0922501
-0.0913656
-0.0902085
-0.0886872
-0.0867026
-0.0841539
-0.0809438
-0.0770006
-0.0722762
-0.0667587
-0.0604702
-0.0534745
-0.0458689
-0.0377844
-0.0293755
-0.0208147
-0.012283
-0.00395843
0.00399113
0.0114171
0.01819
0.0242106
0.0294052
0.0337356
0.0371869
0.0397774
0.04154
0.0425342
0.0428217
0.0424834
0.0415909
0.0402294
0.0384662
0.0363802
0.0340258
0.0314694
0.0287489
0.0259164
0.0229926
0.0200162
0.0169924
0.013949
0.0108779
0.00780024
0.00469825
0.00159355
-0.0961764
-0.096824
-0.0970269
-0.0972837
-0.0974994
-0.0976627
-0.0977852
-0.0978862
-0.0979792
-0.0980675
-0.0981517
-0.0982304
-0.0983026
-0.0983669
-0.0984221
-0.0984672
-0.098501
-0.0985223
-0.0985295
-0.0985214
-0.0984973
-0.0984566
-0.0983992
-0.098325
-0.0982337
-0.0981252
-0.0980007
-0.0978619
-0.0977086
-0.0975409
-0.0973587
-0.0971613
-0.0969474
-0.0967136
-0.0964552
-0.0961704
-0.0958618
-0.0955282
-0.0951665
-0.0947724
-0.0943378
-0.0938502
-0.0932894
-0.0926264
-0.0918149
-0.0907913
-0.0894763
-0.0877833
-0.0856211
-0.0829035
-0.0795523
-0.0755106
-0.0707462
-0.0652602
-0.0590872
-0.0522993
-0.045
-0.0373219
-0.0294158
-0.021447
-0.0135815
-0.00597971
0.00121412
0.00787348
0.0138942
0.0191967
0.0237297
0.02747
0.0304192
0.0326029
0.034063
0.0348573
0.0350497
0.0347123
0.0339147
0.0327293
0.0312199
0.0294506
0.0274732
0.0253391
0.0230856
0.0207506
0.0183574
0.0159316
0.0134838
0.0110301
0.00857137
0.00611753
0.00366424
0.00122238
-0.100892
-0.0995115
-0.0988833
-0.09845
-0.0982237
-0.0981345
-0.0981227
-0.0981471
-0.0981859
-0.0982315
-0.0982808
-0.0983305
-0.0983786
-0.0984234
-0.0984629
-0.0984952
-0.0985189
-0.0985309
-0.0985292
-0.0985134
-0.0984833
-0.0984384
-0.0983786
-0.0983029
-0.0982107
-0.0981008
-0.0979715
-0.0978243
-0.0976612
-0.0974819
-0.0972846
-0.0970676
-0.0968284
-0.0965637
-0.0962704
-0.0959459
-0.0955882
-0.0951941
-0.0947581
-0.0942728
-0.0937271
-0.0931047
-0.0923815
-0.0915243
-0.0904876
-0.089213
-0.0876306
-0.085665
-0.0832399
-0.0802869
-0.0767504
-0.072594
-0.0678042
-0.0623978
-0.056421
-0.0499524
-0.0430956
-0.0359793
-0.0287446
-0.0215419
-0.0145166
-0.00780735
-0.00153008
0.00421788
0.00936218
0.0138479
0.0176473
0.0207527
0.0231796
0.0249577
0.0261329
0.0267573
0.026892
0.0265977
0.0259384
0.0249729
0.023759
0.0223461
0.0207815
0.0191024
0.0173443
0.0155321
0.0136905
0.0118334
0.0099763
0.00812445
0.00628677
0.00446276
0.00265728
0.000867728
-0.0950464
-0.0961362
-0.0969745
-0.0975868
-0.0979038
-0.0980223
-0.0980566
-0.0980697
-0.0980854
-0.0981154
-0.0981547
-0.0981957
-0.0982365
-0.0982758
-0.0983117
-0.0983424
-0.0983669
-0.0983847
-0.0983904
-0.098379
-0.0983493
-0.098301
-0.0982345
-0.0981502
-0.098046
-0.0979193
-0.0977688
-0.0975945
-0.0973964
-0.0971734
-0.0969236
-0.0966442
-0.0963319
-0.0959827
-0.0955921
-0.0951556
-0.0946685
-0.0941254
-0.0935188
-0.0928388
-0.0920715
-0.0911985
-0.0901956
-0.0890313
-0.087665
-0.0860479
-0.0841242
-0.0818356
-0.0791257
-0.0759451
-0.0722559
-0.0680408
-0.0633059
-0.0580837
-0.0524307
-0.0464282
-0.0401758
-0.0337901
-0.0273934
-0.0211116
-0.0150606
-0.00934843
-0.00406319
0.000723098
0.00496447
0.0086298
0.0117115
0.0142127
0.0161571
0.0175738
0.0185075
0.0190016
0.0191112
0.018885
0.0183803
0.0176429
0.0167253
0.0156636
0.0145007
0.0132608
0.0119777
0.0106642
0.00934655
0.00802737
0.00672712
0.00544039
0.00418454
0.002948
0.00174664
0.000562595
-0.117736
-0.102808
-0.100881
-0.0994047
-0.0984898
-0.0980613
-0.0978868
-0.0978243
-0.0978043
-0.097807
-0.0978447
-0.0979062
-0.097971
-0.0980314
-0.0980855
-0.0981321
-0.0981684
-0.0981908
-0.0981939
-0.0981728
-0.0981252
-0.098051
-0.0979512
-0.0978248
-0.0976688
-0.0974801
-0.097256
-0.0969946
-0.0966944
-0.0963536
-0.0959699
-0.0955409
-0.0950628
-0.0945316
-0.0939424
-0.0932903
-0.0925697
-0.0917744
-0.0908966
-0.0899261
-0.0888494
-0.0876484
-0.0862989
-0.0847717
-0.083034
-0.0810493
-0.0787785
-0.0761829
-0.0732274
-0.0698852
-0.0661413
-0.0619974
-0.0574734
-0.0526086
-0.0474591
-0.0420978
-0.0366101
-0.0310922
-0.0256422
-0.0203579
-0.0153267
-0.0106269
-0.00632062
-0.00245774
0.000936988
0.00384943
0.00628339
0.00824706
0.00976627
0.0108676
0.0115927
0.0119774
0.0120706
0.0119106
0.0115486
0.0110201
0.0103725
0.0096308
0.00883435
0.00799579
0.00714697
0.00628896
0.0054491
0.00461838
0.00382293
0.003045
0.00231225
0.00159865
0.000934883
0.000283052
-0.0852755
-0.0917392
-0.0942473
-0.0950886
-0.0955337
-0.095933
-0.0963022
-0.096612
-0.0968798
-0.097113
-0.0973132
-0.0974829
-0.0976251
-0.0977435
-0.0978402
-0.0979148
-0.0979642
-0.0979836
-0.097968
-0.0979129
-0.0978154
-0.0976741
-0.0974884
-0.0972571
-0.0969785
-0.0966504
-0.0962708
-0.0958381
-0.095351
-0.0948076
-0.0942051
-0.0935396
-0.0928075
-0.0920053
-0.0911294
-0.0901755
-0.0891388
-0.0880136
-0.0867929
-0.0854679
-0.0840274
-0.0824573
-0.0807402
-0.0788563
-0.0767838
-0.0744998
-0.0719809
-0.0692058
-0.0661573
-0.0628252
-0.059209
-0.0553193
-0.0511798
-0.0468268
-0.0423082
-0.0376822
-0.0330167
-0.0283869
-0.0238688
-0.0195377
-0.01546
-0.0116931
-0.00827753
-0.00524174
-0.00259695
-0.000347228
0.00151643
0.00300543
0.00414555
0.00496282
0.00549633
0.0057782
0.00585197
0.00574926
0.00551428
0.00517395
0.00476919
0.00431702
0.00385187
0.00337749
0.00292209
0.00247623
0.00206625
0.00167162
0.00132301
0.000989861
0.000710742
0.000441438
0.000230568
1.59639e-05
-0.0793164
-0.0870952
-0.0910789
-0.0925045
-0.0929386
-0.0932744
-0.09377
-0.0943827
-0.0949987
-0.0955433
-0.095994
-0.0963596
-0.0966582
-0.0969042
-0.0971046
-0.0972593
-0.0973641
-0.0974128
-0.0973992
-0.0973184
-0.0971669
-0.0969429
-0.0966459
-0.0962757
-0.0958327
-0.095317
-0.0947286
-0.0940678
-0.0933343
-0.0925279
-0.0916475
-0.0906917
-0.0896589
-0.0885474
-0.087355
-0.0860793
-0.084717
-0.0832643
-0.0817165
-0.0800678
-0.0783112
-0.0764381
-0.0744387
-0.0723017
-0.0700147
-0.0675646
-0.0649386
-0.0621263
-0.059121
-0.0559215
-0.0525333
-0.0489703
-0.0452556
-0.0414225
-0.0375137
-0.0335799
-0.0296747
-0.0258542
-0.0221744
-0.0186899
-0.0154492
-0.0124915
-0.00984367
-0.00752281
-0.00553322
-0.00386914
-0.00251315
-0.00144681
-0.000644135
-7.87715e-05
0.000285096
0.000479956
0.000545758
0.000511351
0.000411296
0.000264152
9.88991e-05
-7.43958e-05
-0.000230078
-0.000369429
-0.000471691
-0.00055198
-0.000589833
-0.000612626
-0.000590638
-0.000562169
-0.000482108
-0.000408999
-0.000276926
-0.000174258
-0.0690995
-0.0762943
-0.081638
-0.0851234
-0.0872615
-0.0887118
-0.0899227
-0.0910728
-0.0921744
-0.093182
-0.0940579
-0.0947925
-0.0953961
-0.0958858
-0.0962747
-0.0965693
-0.0967698
-0.0968732
-0.0968755
-0.0967733
-0.096565
-0.0962502
-0.0958303
-0.0953075
-0.0946847
-0.0939651
-0.0931517
-0.0922474
-0.0912547
-0.0901758
-0.0890123
-0.0877654
-0.0864355
-0.0850225
-0.083526
-0.081945
-0.0802781
-0.0785236
-0.0766791
-0.0747422
-0.0727097
-0.0705781
-0.0683436
-0.0660022
-0.0635497
-0.0609821
-0.0582964
-0.0554906
-0.0525647
-0.0495219
-0.0463699
-0.0431221
-0.0397995
-0.0364317
-0.0330577
-0.029723
-0.0264753
-0.0233607
-0.0204198
-0.017685
-0.0151808
-0.0129264
-0.0109387
-0.0092319
-0.00780901
-0.00665437
-0.00573521
-0.00501793
-0.00447356
-0.00407971
-0.00381024
-0.00363533
-0.00351851
-0.00343217
-0.00335389
-0.00327646
-0.00318978
-0.00309288
-0.00297384
-0.00283514
-0.00266521
-0.00247551
-0.00225282
-0.00201741
-0.00174772
-0.0014775
-0.00116838
-0.000877213
-0.000534735
-0.000244239
-0.0638658
-0.0704873
-0.075959
-0.0801755
-0.0832604
-0.0855242
-0.0873084
-0.0888517
-0.0902621
-0.091557
-0.0927165
-0.09372
-0.0945613
-0.0952459
-0.0957838
-0.096183
-0.0964471
-0.0965758
-0.0965673
-0.0964198
-0.0961329
-0.0957082
-0.095149
-0.0944597
-0.0936459
-0.0927134
-0.0916681
-0.0905156
-0.0892615
-0.0879106
-0.086467
-0.084934
-0.0833139
-0.0816084
-0.0798182
-0.0779441
-0.0759864
-0.0739455
-0.0718219
-0.0696161
-0.0673292
-0.0649623
-0.0625171
-0.0599962
-0.0574027
-0.0547406
-0.0520146
-0.0492298
-0.046392
-0.0435079
-0.0405859
-0.037637
-0.0346774
-0.0317309
-0.0288315
-0.026023
-0.0233548
-0.0208716
-0.0186029
-0.0165555
-0.0147183
-0.0130782
-0.0116392
-0.0104217
-0.0094377
-0.00866844
-0.00806341
-0.00756432
-0.00713607
-0.00677115
-0.00646849
-0.00621621
-0.00598805
-0.00575739
-0.00550514
-0.00522681
-0.00492477
-0.00460913
-0.00428428
-0.00395622
-0.00362093
-0.00328168
-0.00293045
-0.00257462
-0.00220247
-0.00183003
-0.00143529
-0.00105241
-0.000633111
-0.000258231
-0.0593476
-0.0656198
-0.0710823
-0.075639
-0.0792965
-0.0821879
-0.0845236
-0.0865037
-0.088261
-0.0898539
-0.0912902
-0.0925564
-0.0936389
-0.0945327
-0.0952396
-0.0957645
-0.096111
-0.0962807
-0.0962735
-0.0960899
-0.0957318
-0.0952032
-0.0945101
-0.0936597
-0.0926602
-0.09152
-0.0902478
-0.0888523
-0.0873421
-0.0857252
-0.0840085
-0.0821973
-0.0802961
-0.0783081
-0.0762356
-0.074081
-0.0718464
-0.0695345
-0.0671486
-0.0646927
-0.0621721
-0.0595926
-0.0569612
-0.0542863
-0.0515773
-0.0488455
-0.0461032
-0.0433632
-0.0406372
-0.0379355
-0.0352662
-0.0326369
-0.0300562
-0.0275363
-0.0250977
-0.022777
-0.0206266
-0.0186988
-0.0170216
-0.015575
-0.0143015
-0.0131465
-0.0121003
-0.0111922
-0.0104523
-0.00987772
-0.00941561
-0.0089895
-0.00855119
-0.00810033
-0.00766163
-0.00725435
-0.00687824
-0.00652213
-0.00617352
-0.00582095
-0.00545661
-0.00508058
-0.00469559
-0.00430656
-0.00391411
-0.00352064
-0.00312361
-0.0027257
-0.00232179
-0.00191711
-0.00150231
-0.00109102
-0.000659159
-0.000253752
-0.0557676
-0.0618371
-0.0672807
-0.0720205
-0.0760331
-0.0793722
-0.0821596
-0.0845408
-0.0866367
-0.0885192
-0.0902143
-0.0917196
-0.0930222
-0.0941105
-0.0949788
-0.0956259
-0.0960527
-0.0962599
-0.0962484
-0.09602
-0.0955794
-0.0949344
-0.0940953
-0.0930732
-0.0918794
-0.0905253
-0.0890221
-0.0873817
-0.0856154
-0.083734
-0.0817471
-0.0796629
-0.0774878
-0.0752271
-0.0728852
-0.0704659
-0.0679735
-0.065413
-0.0627908
-0.060115
-0.0573953
-0.0546432
-0.0518712
-0.0490926
-0.0463214
-0.0435739
-0.04087
-0.0382306
-0.0356725
-0.033206
-0.0308352
-0.0285619
-0.0263862
-0.0243065
-0.0223206
-0.0204445
-0.0187224
-0.0172111
-0.015953
-0.0149169
-0.0140162
-0.0131755
-0.0123702
-0.0116162
-0.0109275
-0.0103319
-0.00982844
-0.00937402
-0.00893286
-0.00850638
-0.00808869
-0.00766974
-0.00724501
-0.00681452
-0.00638003
-0.00594691
-0.0055214
-0.00510684
-0.00470157
-0.00430411
-0.00391158
-0.00352115
-0.00312904
-0.00273426
-0.00233407
-0.00192923
-0.00151618
-0.00109888
-0.000671009
-0.000258339
-0.052893
-0.0588595
-0.0642955
-0.0691352
-0.0733582
-0.0769969
-0.0801282
-0.0828511
-0.085259
-0.0874182
-0.0893618
-0.0910948
-0.0926071
-0.0938836
-0.0949119
-0.0956839
-0.0961953
-0.0964443
-0.096431
-0.0961579
-0.0956316
-0.094864
-0.0938719
-0.0926725
-0.0912814
-0.0897134
-0.0879831
-0.0861051
-0.084094
-0.0819635
-0.0797262
-0.0773928
-0.0749724
-0.0724725
-0.0698995
-0.0672596
-0.064559
-0.0618054
-0.0590081
-0.0561791
-0.053333
-0.0504875
-0.0476615
-0.0448736
-0.0421386
-0.0394714
-0.0368963
-0.0344377
-0.0321107
-0.0299182
-0.0278532
-0.0259074
-0.0240764
-0.0223555
-0.0207466
-0.019247
-0.0178693
-0.0166459
-0.0155824
-0.0146626
-0.0138562
-0.0131307
-0.0124731
-0.0118824
-0.0113657
-0.0108535
-0.010296
-0.00969427
-0.0090962
-0.00853454
-0.00802301
-0.00756464
-0.00714405
-0.0067401
-0.00633927
-0.0059365
-0.00553135
-0.00512546
-0.00472251
-0.00432346
-0.00392698
-0.00353159
-0.00313546
-0.00273732
-0.00233511
-0.00192822
-0.00151495
-0.00109715
-0.000677414
-0.000254908
-0.0505315
-0.0564753
-0.0619162
-0.0668099
-0.071157
-0.0749954
-0.0783855
-0.0813948
-0.0840872
-0.0865131
-0.0887017
-0.0906607
-0.0923812
-0.0938461
-0.0950374
-0.09594
-0.0965435
-0.096842
-0.0968343
-0.0965237
-0.0959189
-0.0950347
-0.0938943
-0.0925219
-0.0909403
-0.0891711
-0.0872347
-0.0851503
-0.0829361
-0.0806084
-0.0781819
-0.0756688
-0.0730796
-0.0704231
-0.0677071
-0.0649389
-0.0621264
-0.0592786
-0.0564067
-0.0535245
-0.0506491
-0.0478018
-0.0450067
-0.042288
-0.039663
-0.0371509
-0.0347727
-0.0325415
-0.0304566
-0.0285064
-0.0266693
-0.0249219
-0.0232559
-0.0216901
-0.0202603
-0.0190061
-0.0179494
-0.017068
-0.0162612
-0.0154163
-0.0144991
-0.013544
-0.0126401
-0.0118671
-0.0112135
-0.0106505
-0.0101293
-0.00961094
-0.0090942
-0.0085885
-0.00810877
-0.00765703
-0.00722338
-0.00679877
-0.00637829
-0.00596098
-0.00554788
-0.00513944
-0.00473482
-0.00433369
-0.00393497
-0.0035372
-0.00313882
-0.00273857
-0.0023351
-0.00192721
-0.00151383
-0.00109767
-0.000683182
-0.000251749
-0.0490238
-0.0549348
-0.0603434
-0.0652411
-0.0696523
-0.0736181
-0.0771885
-0.0804127
-0.0833331
-0.0859842
-0.0883859
-0.0905426
-0.0924447
-0.094074
-0.0954085
-0.0964274
-0.0971141
-0.0974581
-0.0974562
-0.0971135
-0.0964427
-0.0954625
-0.0941947
-0.0926677
-0.0909139
-0.0889659
-0.0868539
-0.0846046
-0.082241
-0.0797822
-0.0772437
-0.074638
-0.071975
-0.0692626
-0.0665077
-0.0637169
-0.0608969
-0.058056
-0.055204
-0.0523539
-0.0495222
-0.0467294
-0.0440013
-0.0413681
-0.0388644
-0.0365229
-0.0343622
-0.0323835
-0.030566
-0.0288718
-0.0272532
-0.0256538
-0.0240428
-0.0224262
-0.0208489
-0.0193782
-0.0180833
-0.0169738
-0.0160074
-0.0151308
-0.0142902
-0.0134804
-0.0127162
-0.0120158
-0.0113916
-0.0108146
-0.0102552
-0.00970191
-0.00915969
-0.00863921
-0.00814748
-0.00768287
-0.00723989
-0.00681109
-0.00639053
-0.00597488
-0.00556292
-0.00515453
-0.00474957
-0.00434747
-0.00394723
-0.0035476
-0.00314732
-0.00274525
-0.00234036
-0.00193157
-0.00151827
-0.00110293
-0.000688115
-0.000251353
-0.048123
-0.0540529
-0.0594633
-0.0643807
-0.068845
-0.0728993
-0.076588
-0.0799549
-0.0830375
-0.0858582
-0.0884254
-0.0907351
-0.0927734
-0.0945205
-0.0959538
-0.0970519
-0.0977978
-0.0981807
-0.0981985
-0.0978577
-0.0971737
-0.0961696
-0.094874
-0.0933191
-0.0915381
-0.0895639
-0.0874275
-0.0851568
-0.0827759
-0.0803048
-0.0777596
-0.075153
-0.0724951
-0.0697938
-0.0670556
-0.0642867
-0.061493
-0.0586815
-0.0558609
-0.0530419
-0.0502385
-0.0474683
-0.0447525
-0.0421162
-0.0395854
-0.0371841
-0.0349291
-0.0328256
-0.0308667
-0.0290387
-0.0273022
-0.0256129
-0.0239652
-0.0223679
-0.0208575
-0.0194819
-0.0182688
-0.0172153
-0.0162668
-0.0153618
-0.0144735
-0.0136095
-0.0128004
-0.0120723
-0.0114203
-0.0108235
-0.010256
-0.0097054
-0.00917224
-0.0086617
-0.00817644
-0.00771441
-0.00727014
-0.00683799
-0.00641407
-0.00599625
-0.00558353
-0.00517526
-0.00477072
-0.00436902
-0.003969
-0.00356938
-0.00316891
-0.00276648
-0.00236121
-0.00195236
-0.00153941
-0.00112273
-0.000701628
-0.000257517
)
;

boundaryField
{
    fixedWalls
    {
        type            zeroGradient;
    }
    inflowWall
    {
        type            zeroGradient;
    }
    outflowWall
    {
        type            fixedValue;
        value           uniform 0;
    }
    frontAndBack
    {
        type            empty;
    }
}


// ************************************************************************* //
