/*--------------------------------*- C++ -*----------------------------------*\
| =========                 |                                                 |
| \\      /  F ield         | OpenFOAM: The Open Source CFD Toolbox           |
|  \\    /   O peration     | Version:  2306                                  |
|   \\  /    A nd           | Website:  www.openfoam.com                      |
|    \\/     M anipulation  |                                                 |
\*---------------------------------------------------------------------------*/
FoamFile
{
    version     2.0;
    format      ascii;
    arch        "LSB;label=32;scalar=64";
    class       surfaceScalarField;
    location    "4";
    object      phi;
}
// * * * * * * * * * * * * * * * * * * * * * * * * * * * * * * * * * * * * * //

dimensions      [0 3 -1 0 0 0 0];

oriented        oriented;

internalField   nonuniform List<scalar> 
3680
(
4.9347e-05
6.53002e-07
4.79742e-05
1.37283e-06
4.6698e-05
1.27619e-06
4.5261e-05
1.43697e-06
4.41233e-05
1.13768e-06
4.27198e-05
1.40351e-06
4.17364e-05
9.83375e-07
4.04357e-05
1.30073e-06
3.98054e-05
6.30314e-07
9.84856e-07
3.88205e-05
5.03392e-05
3.13799e-07
5.08679e-05
8.4414e-07
5.11322e-05
1.01189e-06
5.14654e-05
1.10373e-06
5.15931e-05
1.01006e-06
5.19765e-05
1.02009e-06
5.2062e-05
8.97886e-07
5.25141e-05
8.48603e-07
5.25086e-05
6.35795e-07
4.28911e-07
5.30646e-05
5.01633e-05
1.50507e-07
5.05554e-05
4.5202e-07
5.0976e-05
5.91306e-07
5.14197e-05
6.6005e-07
5.18169e-05
6.12868e-07
5.2268e-05
5.68993e-07
5.26951e-05
4.70723e-07
5.31641e-05
3.79607e-07
5.35811e-05
2.188e-07
7.57891e-09
5.40025e-05
5.00932e-05
5.72853e-08
5.03764e-05
1.68855e-07
5.07341e-05
2.33637e-07
5.11461e-05
2.4797e-07
5.15497e-05
2.09282e-07
5.19723e-05
1.46456e-07
5.23833e-05
5.9647e-08
5.28123e-05
-4.93321e-08
5.32227e-05
-1.91651e-07
-3.62222e-07
5.35925e-05
5.00738e-05
-1.65058e-08
5.02912e-05
-4.8603e-08
5.0611e-05
-8.61535e-08
5.09886e-05
-1.29624e-07
5.13801e-05
-1.82208e-07
5.17741e-05
-2.47541e-07
5.2165e-05
-3.31196e-07
5.25511e-05
-4.35427e-07
5.29204e-05
-5.61035e-07
-7.07719e-07
5.32659e-05
5.00732e-05
-8.96647e-08
5.02829e-05
-2.58326e-07
5.05977e-05
-4.0094e-07
5.09651e-05
-4.97035e-07
5.13441e-05
-5.61219e-07
5.17211e-05
-6.24592e-07
5.20908e-05
-7.00809e-07
5.24515e-05
-7.96148e-07
5.28007e-05
-9.10242e-07
-1.03884e-06
5.31318e-05
5.00942e-05
-1.83849e-07
5.03555e-05
-5.1965e-07
5.06981e-05
-7.43517e-07
5.10679e-05
-8.66859e-07
5.14401e-05
-9.3343e-07
5.18037e-05
-9.88155e-07
5.21601e-05
-1.05722e-06
5.2511e-05
-1.14707e-06
5.28513e-05
-1.25055e-06
-1.35953e-06
5.3172e-05
5.01665e-05
-3.50306e-07
5.05179e-05
-8.71135e-07
5.09206e-05
-1.14617e-06
5.12992e-05
-1.24548e-06
5.16478e-05
-1.28203e-06
5.19849e-05
-1.32523e-06
5.23184e-05
-1.39068e-06
5.26392e-05
-1.46794e-06
5.29337e-05
-1.54499e-06
-1.61639e-06
5.31905e-05
5.03676e-05
-7.17899e-07
5.08003e-05
-1.30386e-06
5.10989e-05
-1.44475e-06
5.12762e-05
-1.42279e-06
5.14045e-05
-1.41032e-06
5.15028e-05
-1.42357e-06
5.15538e-05
-1.4416e-06
5.15406e-05
-1.45476e-06
5.1455e-05
-1.45938e-06
-1.45884e-06
5.12974e-05
4.92821e-05
4.79782e-05
4.65335e-05
4.51107e-05
4.37004e-05
4.22768e-05
4.08352e-05
3.93805e-05
3.79211e-05
3.64622e-05
1.43494e-08
-1.43494e-08
1.08576e-08
3.49187e-09
-7.63634e-09
1.8494e-08
-3.57278e-08
2.80915e-08
-7.06782e-08
3.49503e-08
-1.11211e-07
4.05324e-08
-1.56936e-07
4.57251e-08
-2.07596e-07
5.06603e-08
-2.62895e-07
5.52989e-08
-3.22499e-07
5.9604e-08
-3.86051e-07
6.35524e-08
-4.53187e-07
6.71354e-08
-5.23543e-07
7.03565e-08
-5.9677e-07
7.32271e-08
-6.72535e-07
7.57649e-08
-7.50528e-07
7.79925e-08
-8.30465e-07
7.99374e-08
-9.12096e-07
8.16316e-08
-9.95209e-07
8.31122e-08
-1.07964e-06
8.44286e-08
-1.16528e-06
8.5642e-08
-1.2521e-06
8.68199e-08
-1.34013e-06
8.80326e-08
-1.42948e-06
8.93517e-08
-1.52033e-06
9.085e-08
-1.61293e-06
9.25996e-08
-1.7076e-06
9.46654e-08
-1.8047e-06
9.70982e-08
-1.90463e-06
9.9936e-08
-2.00784e-06
1.03209e-07
-2.1148e-06
1.06957e-07
-2.22607e-06
1.11274e-07
-2.34245e-06
1.16373e-07
-2.46511e-06
1.22669e-07
-2.59593e-06
1.30813e-07
-2.73767e-06
1.41742e-07
-2.89435e-06
1.56681e-07
-3.07144e-06
1.77094e-07
-3.27595e-06
2.04511e-07
-3.51619e-06
2.40236e-07
-3.80108e-06
2.84889e-07
-4.13893e-06
3.37855e-07
-4.53577e-06
3.96836e-07
-4.99334e-06
4.57567e-07
-5.5075e-06
5.14162e-07
-6.06751e-06
5.60014e-07
-6.65647e-06
5.88958e-07
-7.25245e-06
5.95981e-07
-7.83034e-06
5.77892e-07
-8.365e-06
5.34654e-07
-8.83393e-06
4.68927e-07
-9.21397e-06
3.80043e-07
-9.48687e-06
2.729e-07
-9.64122e-06
1.54346e-07
-9.6627e-06
2.14819e-08
-9.5546e-06
-1.08098e-07
-9.31557e-06
-2.39031e-07
-8.94736e-06
-3.68209e-07
-8.45533e-06
-4.92026e-07
-7.84882e-06
-6.06515e-07
-7.1392e-06
-7.0962e-07
-6.33882e-06
-8.00381e-07
-5.46115e-06
-8.77668e-07
-4.52084e-06
-9.40309e-07
-3.53282e-06
-9.88022e-07
-2.51292e-06
-1.0199e-06
-1.47637e-06
-1.03656e-06
-4.3614e-07
-1.04023e-06
5.94923e-07
-1.03106e-06
1.60619e-06
-1.01126e-06
2.58645e-06
-9.80266e-07
3.52839e-06
-9.41939e-07
4.42332e-06
-8.94922e-07
5.26824e-06
-8.44926e-07
6.05649e-06
-7.88247e-07
6.7883e-06
-7.3181e-07
7.45956e-06
-6.71257e-07
8.07413e-06
-6.14574e-07
8.62949e-06
-5.55357e-07
9.13266e-06
-5.03172e-07
9.58194e-06
-4.49279e-07
9.98726e-06
-4.05323e-07
1.03469e-05
-3.5967e-07
1.06738e-05
-3.26822e-07
1.09651e-05
-2.91352e-07
1.1237e-05
-2.71869e-07
1.14834e-05
-2.464e-07
1.17256e-05
-2.42175e-07
1.19557e-05
-2.30171e-07
-2.50577e-07
-1.08646e-08
-3.48485e-09
-6.43892e-08
5.70165e-08
-1.47619e-07
1.01723e-07
-2.52513e-07
1.32986e-07
-3.74232e-07
1.5667e-07
-5.10479e-07
1.76779e-07
-6.59655e-07
1.949e-07
-8.20325e-07
2.11331e-07
-9.91127e-07
2.26101e-07
-1.17076e-06
2.39237e-07
-1.35799e-06
2.5078e-07
-1.55165e-06
2.608e-07
-1.75069e-06
2.69389e-07
-1.95412e-06
2.76667e-07
-2.16113e-06
2.82771e-07
-2.37099e-06
2.87852e-07
-2.58313e-06
2.92076e-07
-2.79711e-06
2.95618e-07
-3.01267e-06
2.98667e-07
-3.22968e-06
3.01439e-07
-3.44821e-06
3.0417e-07
-3.6685e-06
3.07112e-07
-3.89098e-06
3.10513e-07
-4.11625e-06
3.14622e-07
-4.34509e-06
3.19686e-07
-4.57844e-06
3.25956e-07
-4.81744e-06
3.33664e-07
-5.06336e-06
3.4302e-07
-5.31763e-06
3.54204e-07
-5.58181e-06
3.67388e-07
-5.8576e-06
3.82743e-07
-6.14681e-06
4.00489e-07
-6.45141e-06
4.20971e-07
-6.77349e-06
4.44748e-07
-7.11523e-06
4.72555e-07
-7.47872e-06
5.05232e-07
-7.86568e-06
5.43641e-07
-8.27708e-06
5.88494e-07
-8.71265e-06
6.40074e-07
-9.1703e-06
6.97889e-07
-9.64569e-06
7.60276e-07
-1.01317e-05
8.23901e-07
-1.06184e-05
8.83495e-07
-1.10927e-05
9.31855e-07
-1.15392e-05
9.60688e-07
-1.1941e-05
9.61775e-07
-1.22807e-05
9.28668e-07
-1.2542e-05
8.57281e-07
-1.27089e-05
7.44795e-07
-1.27674e-05
5.93178e-07
-1.27052e-05
4.06772e-07
-1.25127e-05
1.87507e-07
-1.21812e-05
-5.85726e-08
-1.1721e-05
-3.05908e-07
-1.11307e-05
-5.68807e-07
-1.04046e-05
-8.34172e-07
-9.54789e-06
-1.09577e-06
-8.56949e-06
-1.34661e-06
-7.47784e-06
-1.58368e-06
-6.28416e-06
-1.80019e-06
-5.00205e-06
-1.99173e-06
-3.64409e-06
-2.15834e-06
-2.22495e-06
-2.29681e-06
-7.60419e-07
-2.40484e-06
7.3463e-07
-2.48307e-06
2.24546e-06
-2.53073e-06
3.76094e-06
-2.55203e-06
5.26668e-06
-2.54597e-06
6.75129e-06
-2.51567e-06
8.20342e-06
-2.46339e-06
9.61431e-06
-2.39116e-06
1.09757e-05
-2.30338e-06
1.22817e-05
-2.20089e-06
1.35267e-05
-2.08987e-06
1.47077e-05
-1.96929e-06
1.58227e-05
-1.84678e-06
1.68708e-05
-1.71943e-06
1.78525e-05
-1.59623e-06
1.8769e-05
-1.47184e-06
1.96226e-05
-1.35677e-06
2.04163e-05
-1.24298e-06
2.11539e-05
-1.14298e-06
2.18399e-05
-1.04558e-06
2.2479e-05
-9.66008e-07
2.30768e-05
-8.89146e-07
2.36391e-05
-8.3415e-07
2.41735e-05
-7.8076e-07
2.46858e-05
-7.54512e-07
2.51828e-05
-7.27137e-07
-7.27942e-07
-4.99352e-08
4.64504e-08
-1.86185e-07
1.93266e-07
-3.68209e-07
2.83748e-07
-5.77159e-07
3.41937e-07
-8.04244e-07
3.83754e-07
-1.04705e-06
4.19589e-07
-1.30409e-06
4.51934e-07
-1.57287e-06
4.80115e-07
-1.85087e-06
5.04096e-07
-2.13571e-06
5.24086e-07
-2.4253e-06
5.40366e-07
-2.71777e-06
5.53265e-07
-3.01154e-06
5.63162e-07
-3.30533e-06
5.70458e-07
-3.59812e-06
5.75557e-07
-3.88912e-06
5.78858e-07
-4.17779e-06
5.80745e-07
-4.46379e-06
5.81612e-07
-4.74692e-06
5.81802e-07
-5.02719e-06
5.81706e-07
-5.30476e-06
5.81742e-07
-5.57994e-06
5.82296e-07
-5.85315e-06
5.8372e-07
-6.12486e-06
5.86326e-07
-6.39556e-06
5.90393e-07
-6.66578e-06
5.96176e-07
-6.936e-06
6.0388e-07
-7.2066e-06
6.13621e-07
-7.47783e-06
6.25439e-07
-7.74976e-06
6.3931e-07
-8.02217e-06
6.5516e-07
-8.29456e-06
6.72876e-07
-8.56597e-06
6.92379e-07
-8.83516e-06
7.13939e-07
-9.10038e-06
7.3778e-07
-9.35924e-06
7.64087e-07
-9.60849e-06
7.92891e-07
-9.84392e-06
8.2393e-07
-1.00602e-05
8.56321e-07
-1.02506e-05
8.88289e-07
-1.04076e-05
9.17315e-07
-1.05222e-05
9.38496e-07
-1.05847e-05
9.45956e-07
-1.05851e-05
9.32311e-07
-1.05139e-05
8.89468e-07
-1.03618e-05
8.09689e-07
-1.01207e-05
6.87589e-07
-9.78612e-06
5.22669e-07
-9.35383e-06
3.12498e-07
-8.81648e-06
5.58302e-08
-8.17964e-06
-2.30071e-07
-7.44355e-06
-5.48583e-07
-6.60871e-06
-8.93412e-07
-5.6656e-06
-1.24901e-06
-4.6237e-06
-1.6107e-06
-3.48985e-06
-1.96802e-06
-2.26867e-06
-2.31695e-06
-9.67649e-07
-2.64762e-06
4.04956e-07
-2.95628e-06
1.83491e-06
-3.23014e-06
3.31853e-06
-3.47536e-06
4.8406e-06
-3.68041e-06
6.39249e-06
-3.8487e-06
7.96024e-06
-3.97259e-06
9.53536e-06
-4.05819e-06
1.11041e-05
-4.0995e-06
1.26567e-05
-4.10457e-06
1.41812e-05
-4.07049e-06
1.56703e-05
-4.00478e-06
1.71141e-05
-3.90715e-06
1.85079e-05
-3.78496e-06
1.98444e-05
-3.63989e-06
2.11218e-05
-3.47831e-06
2.23352e-05
-3.30328e-06
2.34856e-05
-3.11968e-06
2.45702e-05
-2.93142e-06
2.55922e-05
-2.74144e-06
2.65505e-05
-2.55452e-06
2.745e-05
-2.37136e-06
2.82909e-05
-2.19761e-06
2.90794e-05
-2.03147e-06
2.98164e-05
-1.88003e-06
3.05094e-05
-1.73855e-06
3.11597e-05
-1.61633e-06
3.17756e-05
-1.50503e-06
3.23589e-05
-1.41742e-06
3.29187e-05
-1.34057e-06
3.3456e-05
-1.29186e-06
3.39803e-05
-1.25137e-06
-1.24759e-06
-1.38133e-07
1.84584e-07
-3.91943e-07
4.47076e-07
-6.85101e-07
5.76905e-07
-9.95565e-07
6.52401e-07
-1.32124e-06
7.09432e-07
-1.65947e-06
7.57819e-07
-2.00529e-06
7.9775e-07
-2.35402e-06
8.2885e-07
-2.70171e-06
8.51784e-07
-3.04536e-06
8.67734e-07
-3.38255e-06
8.77553e-07
-3.71139e-06
8.82105e-07
-4.03054e-06
8.82313e-07
-4.33906e-06
8.78985e-07
-4.63635e-06
8.72842e-07
-4.92203e-06
8.64535e-07
-5.19592e-06
8.54634e-07
-5.45794e-06
8.43638e-07
-5.70816e-06
8.32024e-07
-5.94671e-06
8.2025e-07
-6.17371e-06
8.0875e-07
-6.38932e-06
7.97901e-07
-6.5936e-06
7.88006e-07
-6.78656e-06
7.79282e-07
-6.96805e-06
7.71878e-07
-7.13777e-06
7.65895e-07
-7.29528e-06
7.61394e-07
-7.43994e-06
7.58279e-07
-7.57082e-06
7.56325e-07
-7.68674e-06
7.55225e-07
-7.78617e-06
7.54589e-07
-7.86726e-06
7.53964e-07
-7.92777e-06
7.52897e-07
-7.96491e-06
7.51071e-07
-7.97548e-06
7.4835e-07
-7.95587e-06
7.44482e-07
-7.90182e-06
7.38841e-07
-7.8084e-06
7.30513e-07
-7.67007e-06
7.17989e-07
-7.4807e-06
6.9892e-07
-7.23325e-06
6.6986e-07
-6.92104e-06
6.26291e-07
-6.539e-06
5.63917e-07
-6.08249e-06
4.75797e-07
-5.54783e-06
3.54809e-07
-4.93229e-06
1.94146e-07
-4.2322e-06
-1.2498e-08
-3.45498e-06
-2.54558e-07
-2.59844e-06
-5.44037e-07
-1.66762e-06
-8.74989e-07
-6.57195e-07
-1.2405e-06
4.28943e-07
-1.63472e-06
1.58435e-06
-2.04882e-06
2.80684e-06
-2.4715e-06
4.09398e-06
-2.89785e-06
5.4413e-06
-3.31534e-06
6.84438e-06
-3.72003e-06
8.2955e-06
-4.09874e-06
9.78894e-06
-4.44972e-06
1.1317e-05
-4.75826e-06
1.287e-05
-5.02828e-06
1.44371e-05
-5.24753e-06
1.60095e-05
-5.42107e-06
1.75755e-05
-5.53858e-06
1.91261e-05
-5.6088e-06
2.06504e-05
-5.62385e-06
2.21406e-05
-5.59475e-06
2.35869e-05
-5.5168e-06
2.49842e-05
-5.40209e-06
2.63249e-05
-5.24785e-06
2.76067e-05
-5.06675e-06
2.88243e-05
-4.85747e-06
2.99781e-05
-4.63215e-06
3.10651e-05
-4.39022e-06
3.20879e-05
-4.1425e-06
3.30452e-05
-3.88872e-06
3.39415e-05
-3.63779e-06
3.47768e-05
-3.38977e-06
3.55568e-05
-3.15132e-06
3.62822e-05
-2.92305e-06
3.69598e-05
-2.70906e-06
3.75908e-05
-2.51103e-06
3.81824e-05
-2.33022e-06
3.87363e-05
-2.17013e-06
3.92599e-05
-2.02872e-06
3.97548e-05
-1.91231e-06
4.02291e-05
-1.81486e-06
4.0684e-05
-1.74678e-06
4.11303e-05
-1.69766e-06
-1.68577e-06
-1.95212e-07
3.79795e-07
-5.65757e-07
8.17621e-07
-9.83848e-07
9.94996e-07
-1.41149e-06
1.08004e-06
-1.83258e-06
1.13052e-06
-2.23842e-06
1.16367e-06
-2.62527e-06
1.18459e-06
-2.99198e-06
1.19557e-06
-3.33678e-06
1.19658e-06
-3.65814e-06
1.1891e-06
-3.95536e-06
1.17477e-06
-4.22828e-06
1.15502e-06
-4.47711e-06
1.13115e-06
-4.70235e-06
1.10422e-06
-4.90463e-06
1.07512e-06
-5.08469e-06
1.04459e-06
-5.24326e-06
1.01321e-06
-5.381e-06
9.81382e-07
-5.49849e-06
9.49516e-07
-5.59624e-06
9.17992e-07
-5.67461e-06
8.87125e-07
-5.73386e-06
8.57153e-07
-5.77407e-06
8.28209e-07
-5.79509e-06
8.00302e-07
-5.79656e-06
7.73356e-07
-5.77789e-06
7.47224e-07
-5.73832e-06
7.2182e-07
-5.67687e-06
6.96834e-07
-5.59231e-06
6.71762e-07
-5.48311e-06
6.46024e-07
-5.34748e-06
6.18956e-07
-5.18332e-06
5.89802e-07
-4.98818e-06
5.57758e-07
-4.75907e-06
5.21963e-07
-4.49271e-06
4.81991e-07
-4.18565e-06
4.37422e-07
-3.83383e-06
3.87017e-07
-3.43275e-06
3.29439e-07
-2.97761e-06
2.62846e-07
-2.46332e-06
1.84634e-07
-1.88457e-06
9.11085e-08
-1.23614e-06
-2.21374e-08
-5.19065e-07
-1.53161e-07
2.70689e-07
-3.13958e-07
1.13486e-06
-5.09357e-07
2.07095e-06
-7.41952e-07
3.07369e-06
-1.01523e-06
4.14692e-06
-1.32779e-06
5.28454e-06
-1.68166e-06
6.48192e-06
-2.07237e-06
7.73615e-06
-2.49473e-06
9.04204e-06
-2.94062e-06
1.03973e-05
-3.40411e-06
1.17984e-05
-3.87256e-06
1.32414e-05
-4.34085e-06
1.47209e-05
-4.79482e-06
1.62311e-05
-5.23025e-06
1.77643e-05
-5.63199e-06
1.93128e-05
-5.99814e-06
2.08682e-05
-6.31368e-06
2.24204e-05
-6.58053e-06
2.39595e-05
-6.78663e-06
2.5476e-05
-6.93757e-06
2.69607e-05
-7.02325e-06
2.84052e-05
-7.05334e-06
2.98019e-05
-7.02055e-06
3.1145e-05
-6.93781e-06
3.24284e-05
-6.8002e-06
3.36493e-05
-6.62298e-06
3.4804e-05
-6.40252e-06
3.58924e-05
-6.15524e-06
3.6913e-05
-5.87802e-06
3.78681e-05
-5.58724e-06
3.87574e-05
-5.27949e-06
3.95851e-05
-4.97025e-06
4.03518e-05
-4.65542e-06
4.10631e-05
-4.34909e-06
4.17198e-05
-4.04646e-06
4.23285e-05
-3.76e-06
4.28898e-05
-3.48441e-06
4.34112e-05
-3.23042e-06
4.38928e-05
-2.99268e-06
4.43427e-05
-2.78011e-06
4.47604e-05
-2.58784e-06
4.51546e-05
-2.42291e-06
4.55239e-05
-2.2816e-06
4.58779e-05
-2.16887e-06
4.62143e-05
-2.08312e-06
4.65436e-05
-2.02699e-06
-2.00706e-06
-4.22285e-07
8.02081e-07
-9.62959e-07
1.35829e-06
-1.4567e-06
1.48874e-06
-1.8918e-06
1.51515e-06
-2.28976e-06
1.52847e-06
-2.65556e-06
1.52947e-06
-2.98445e-06
1.51348e-06
-3.27028e-06
1.48139e-06
-3.50949e-06
1.4358e-06
-3.70415e-06
1.38376e-06
-3.85721e-06
1.32783e-06
-3.9716e-06
1.26941e-06
-4.05015e-06
1.2097e-06
-4.09557e-06
1.14963e-06
-4.11029e-06
1.08985e-06
-4.0965e-06
1.0308e-06
-4.05613e-06
9.72838e-07
-3.99076e-06
9.16006e-07
-3.90164e-06
8.60398e-07
-3.7898e-06
8.06153e-07
-3.656e-06
7.53323e-07
-3.50071e-06
7.01866e-07
-3.32414e-06
6.51637e-07
-3.12615e-06
6.02316e-07
-2.90634e-06
5.53546e-07
-2.66392e-06
5.04802e-07
-2.39806e-06
4.55962e-07
-2.10765e-06
4.06425e-07
-1.79125e-06
3.55355e-07
-1.4472e-06
3.0198e-07
-1.07367e-06
2.45426e-07
-6.68498e-07
1.84628e-07
-2.29113e-07
1.18374e-07
2.47908e-07
4.49424e-08
7.6515e-07
-3.52509e-08
1.32467e-06
-1.22097e-07
1.93098e-06
-2.19292e-07
2.58814e-06
-3.27718e-07
3.30012e-06
-4.49133e-07
4.07076e-06
-5.86016e-07
4.90291e-06
-7.41033e-07
5.79798e-06
-9.1721e-07
6.7623e-06
-1.11748e-06
7.79484e-06
-1.3465e-06
8.89413e-06
-1.60864e-06
1.0058e-05
-1.90585e-06
1.12831e-05
-2.24034e-06
1.25662e-05
-2.61086e-06
1.39016e-05
-3.01704e-06
1.52836e-05
-3.45436e-06
1.67073e-05
-3.91843e-06
1.81666e-05
-4.39991e-06
1.96553e-05
-4.89288e-06
2.11677e-05
-5.38486e-06
2.26961e-05
-5.8693e-06
2.42332e-05
-6.33187e-06
2.57697e-05
-6.76678e-06
2.72969e-05
-7.15922e-06
2.88047e-05
-7.50593e-06
3.02842e-05
-7.79312e-06
3.17252e-05
-8.02157e-06
3.31194e-05
-8.18085e-06
3.44589e-05
-8.27704e-06
3.57378e-05
-8.30219e-06
3.69512e-05
-8.26673e-06
3.80957e-05
-8.16507e-06
3.91694e-05
-8.01149e-06
4.01713e-05
-7.80207e-06
4.11022e-05
-7.55387e-06
4.19631e-05
-7.26347e-06
4.27573e-05
-6.94939e-06
4.34868e-05
-6.60759e-06
4.41565e-05
-6.25689e-06
4.47688e-05
-5.89182e-06
4.53293e-05
-5.53079e-06
4.58405e-05
-5.16655e-06
4.63082e-05
-4.81684e-06
4.67343e-05
-4.47255e-06
4.71251e-05
-4.15076e-06
4.74813e-05
-3.84068e-06
4.78097e-05
-3.55882e-06
4.81101e-05
-3.29298e-06
4.83893e-05
-3.05933e-06
4.8646e-05
-2.84457e-06
4.88878e-05
-2.66474e-06
4.91121e-05
-2.50584e-06
4.93271e-05
-2.3839e-06
4.95287e-05
-2.2847e-06
4.97262e-05
-2.22452e-06
-2.19448e-06
-2.66873e-07
1.06895e-06
-8.63552e-07
1.95497e-06
-1.48498e-06
2.11016e-06
-2.00544e-06
2.03561e-06
-2.39752e-06
1.92055e-06
-2.66388e-06
1.79583e-06
-2.82221e-06
1.67181e-06
-2.89267e-06
1.55185e-06
-2.89265e-06
1.43577e-06
-2.83311e-06
1.32422e-06
-2.72236e-06
1.21708e-06
-2.56699e-06
1.11403e-06
-2.37264e-06
1.01535e-06
-2.14414e-06
9.21139e-07
-1.88556e-06
8.31271e-07
-1.60024e-06
7.45483e-07
-1.29101e-06
6.63605e-07
-9.59953e-07
5.84949e-07
-6.08737e-07
5.09182e-07
-2.38682e-07
4.36098e-07
1.49322e-07
3.65319e-07
5.54789e-07
2.96399e-07
9.7766e-07
2.28766e-07
1.41835e-06
1.6163e-07
1.87763e-06
9.42593e-08
2.35712e-06
2.53099e-08
2.85711e-06
-4.40202e-08
3.37895e-06
-1.1542e-07
3.92482e-06
-1.90509e-07
4.49672e-06
-2.69925e-07
5.09681e-06
-3.54666e-07
5.72741e-06
-4.4597e-07
6.3908e-06
-5.45018e-07
7.08877e-06
-6.53027e-07
7.82438e-06
-7.7086e-07
8.60208e-06
-8.99797e-07
9.42427e-06
-1.04148e-06
1.02942e-05
-1.19764e-06
1.12149e-05
-1.36986e-06
1.21893e-05
-1.56038e-06
1.32195e-05
-1.77127e-06
1.43076e-05
-2.00531e-06
1.54548e-05
-2.26468e-06
1.66604e-05
-2.5521e-06
1.79219e-05
-2.87007e-06
1.92359e-05
-3.21993e-06
2.05976e-05
-3.60205e-06
2.20017e-05
-4.01487e-06
2.34408e-05
-4.45616e-06
2.49074e-05
-4.921e-06
2.63928e-05
-5.40379e-06
2.78883e-05
-5.89542e-06
2.93838e-05
-6.38845e-06
3.08703e-05
-6.87136e-06
3.2337e-05
-7.33593e-06
3.37743e-05
-7.76918e-06
3.51711e-05
-8.16363e-06
3.65186e-05
-8.5067e-06
3.78071e-05
-8.79442e-06
3.90295e-05
-9.01557e-06
4.01784e-05
-9.17044e-06
4.12493e-05
-9.25177e-06
4.22389e-05
-9.26658e-06
4.3147e-05
-9.21026e-06
4.39739e-05
-9.0937e-06
4.47223e-05
-8.91346e-06
4.53953e-05
-8.68448e-06
4.59974e-05
-8.40415e-06
4.65337e-05
-8.09022e-06
4.70098e-05
-7.7395e-06
4.74316e-05
-7.37121e-06
4.78044e-05
-6.98042e-06
4.81345e-05
-6.58693e-06
4.8426e-05
-6.18337e-06
4.86849e-05
-5.78965e-06
4.89141e-05
-5.39575e-06
4.91189e-05
-5.02168e-06
4.93011e-05
-4.65473e-06
4.94655e-05
-4.31518e-06
4.96126e-05
-3.98775e-06
4.9747e-05
-3.69325e-06
4.9868e-05
-3.41398e-06
4.99803e-05
-3.17165e-06
5.00821e-05
-2.94631e-06
5.01782e-05
-2.76091e-06
5.02658e-05
-2.59341e-06
5.03503e-05
-2.46839e-06
5.04274e-05
-2.36181e-06
5.05028e-05
-2.29997e-06
-2.25993e-06
-1.4964e-06
2.56535e-06
-1.94832e-06
2.4069e-06
-2.1146e-06
2.27644e-06
-2.13191e-06
2.05292e-06
-2.01976e-06
1.8084e-06
-1.80184e-06
1.57792e-06
-1.49733e-06
1.3673e-06
-1.12057e-06
1.17509e-06
-6.8425e-07
9.99454e-07
-2.00624e-07
8.40592e-07
3.21043e-07
6.95417e-07
8.7311e-07
5.61964e-07
1.44892e-06
4.39543e-07
2.04343e-06
3.26622e-07
2.65286e-06
2.21842e-07
3.2741e-06
1.24246e-07
3.90421e-06
3.3493e-08
4.54315e-06
-5.39947e-08
5.18983e-06
-1.37492e-07
5.843e-06
-2.17069e-07
6.50248e-06
-2.94169e-07
7.16829e-06
-3.69411e-07
7.8409e-06
-4.43841e-07
8.52185e-06
-5.19317e-07
9.21231e-06
-5.96208e-07
9.91307e-06
-6.75445e-07
1.06268e-05
-7.57776e-07
1.13558e-05
-8.44442e-07
1.2102e-05
-9.36691e-07
1.28678e-05
-1.03565e-06
1.36555e-05
-1.14238e-06
1.44676e-05
-1.25809e-06
1.53065e-05
-1.38391e-06
1.61746e-05
-1.52115e-06
1.70746e-05
-1.67089e-06
1.80092e-05
-1.8344e-06
1.89806e-05
-2.01285e-06
1.99909e-05
-2.20794e-06
2.1042e-05
-2.42095e-06
2.21353e-05
-2.6537e-06
2.32717e-05
-2.90764e-06
2.44511e-05
-3.18473e-06
2.56725e-05
-3.48606e-06
2.69334e-05
-3.81306e-06
2.82297e-05
-4.16631e-06
2.95559e-05
-4.5461e-06
3.09049e-05
-4.95106e-06
3.22689e-05
-5.37887e-06
3.36383e-05
-5.82562e-06
3.5004e-05
-6.28664e-06
3.63538e-05
-6.75362e-06
3.7677e-05
-7.2186e-06
3.89615e-05
-7.67301e-06
4.0197e-05
-8.10682e-06
4.1372e-05
-8.51089e-06
4.24775e-05
-8.87476e-06
4.35047e-05
-9.19081e-06
4.44479e-05
-9.44983e-06
4.53012e-05
-9.64779e-06
4.60634e-05
-9.77773e-06
4.67332e-05
-9.84028e-06
4.73124e-05
-9.83092e-06
4.78037e-05
-9.75787e-06
4.82142e-05
-9.62084e-06
4.85502e-05
-9.42963e-06
4.88197e-05
-9.18302e-06
4.90305e-05
-8.89528e-06
4.91913e-05
-8.56487e-06
4.93098e-05
-8.20873e-06
4.93937e-05
-7.8234e-06
4.945e-05
-7.42752e-06
4.94844e-05
-7.0148e-06
4.95025e-05
-6.60508e-06
4.95079e-05
-6.18874e-06
4.9505e-05
-5.78672e-06
4.94952e-05
-5.38599e-06
4.94823e-05
-5.00874e-06
4.9466e-05
-4.63843e-06
4.94495e-05
-4.29873e-06
4.94314e-05
-3.96962e-06
4.94147e-05
-3.67656e-06
4.93968e-05
-3.39615e-06
4.93812e-05
-3.15598e-06
4.93641e-05
-2.92926e-06
4.93493e-05
-2.74611e-06
4.93323e-05
-2.57637e-06
4.9317e-05
-2.45312e-06
4.92982e-05
-2.34303e-06
4.92809e-05
-2.28261e-06
-2.23205e-06
-8.96642e-07
3.46199e-06
-7.42931e-07
2.25319e-06
-2.523e-07
1.78581e-06
4.60543e-07
1.34007e-06
1.33049e-06
9.38456e-07
2.29146e-06
6.16951e-07
3.29714e-06
3.61619e-07
4.32026e-06
1.51967e-07
5.34643e-06
-2.67098e-08
6.36136e-06
-1.7434e-07
7.3663e-06
-3.0952e-07
8.35971e-06
-4.31452e-07
9.33735e-06
-5.38094e-07
1.02983e-05
-6.34359e-07
1.12426e-05
-7.22407e-07
1.21704e-05
-8.03539e-07
1.30828e-05
-8.78976e-07
1.39793e-05
-9.50487e-07
1.48608e-05
-1.01895e-06
1.57288e-05
-1.0851e-06
1.65846e-05
-1.1499e-06
1.74299e-05
-1.21472e-06
1.82671e-05
-1.28112e-06
1.90982e-05
-1.35033e-06
1.99252e-05
-1.42325e-06
2.07507e-05
-1.50094e-06
2.15774e-05
-1.58448e-06
2.24079e-05
-1.67496e-06
2.32448e-05
-1.77353e-06
2.40905e-05
-1.88139e-06
2.49477e-05
-1.99953e-06
2.58185e-05
-2.12897e-06
2.67053e-05
-2.27067e-06
2.76099e-05
-2.42575e-06
2.85341e-05
-2.59514e-06
2.94796e-05
-2.77987e-06
3.04475e-05
-2.9808e-06
3.14387e-05
-3.19905e-06
3.24532e-05
-3.43546e-06
3.34906e-05
-3.69114e-06
3.45498e-05
-3.9668e-06
3.56289e-05
-4.26385e-06
3.67245e-05
-4.5817e-06
3.7832e-05
-4.92054e-06
3.89454e-05
-5.27966e-06
4.00573e-05
-5.65802e-06
4.11592e-05
-6.05295e-06
4.22416e-05
-6.46133e-06
4.32941e-05
-6.87812e-06
4.43053e-05
-7.29782e-06
4.52645e-05
-7.71281e-06
4.61616e-05
-8.11567e-06
4.69864e-05
-8.49781e-06
4.77308e-05
-8.85125e-06
4.83875e-05
-9.16758e-06
4.89523e-05
-9.43954e-06
4.9422e-05
-9.66057e-06
4.97976e-05
-9.82537e-06
5.00803e-05
-9.9305e-06
5.02758e-05
-9.97325e-06
5.03898e-05
-9.95423e-06
5.04322e-05
-9.87332e-06
5.04109e-05
-9.73664e-06
5.03377e-05
-9.54758e-06
5.02215e-05
-9.31347e-06
5.00737e-05
-9.03523e-06
4.99022e-05
-8.7238e-06
4.97163e-05
-8.37893e-06
4.95217e-05
-8.01415e-06
4.9325e-05
-7.62668e-06
4.91298e-05
-7.2323e-06
4.89397e-05
-6.82471e-06
4.87566e-05
-6.42195e-06
4.85815e-05
-6.01369e-06
4.84156e-05
-5.62076e-06
4.82581e-05
-5.22852e-06
4.81101e-05
-4.86078e-06
4.79697e-05
-4.49802e-06
4.78384e-05
-4.1674e-06
4.7713e-05
-3.84419e-06
4.75958e-05
-3.55945e-06
4.74826e-05
-3.28295e-06
4.73769e-05
-3.05019e-06
4.72727e-05
-2.82508e-06
4.71748e-05
-2.6482e-06
4.70757e-05
-2.4773e-06
4.69813e-05
-2.35873e-06
4.68823e-05
-2.24399e-06
4.67856e-05
-2.18593e-06
-2.12784e-06
3.658e-06
-1.96005e-07
6.38457e-06
-4.73383e-07
8.79691e-06
-6.26528e-07
1.09197e-05
-7.8268e-07
1.27958e-05
-9.37634e-07
1.44894e-05
-1.07665e-06
1.60451e-05
-1.19417e-06
1.74801e-05
-1.28302e-06
1.88204e-05
-1.367e-06
2.00879e-05
-1.44184e-06
2.12864e-05
-1.50803e-06
2.24225e-05
-1.56756e-06
2.35055e-05
-1.62103e-06
2.45406e-05
-1.66944e-06
2.5532e-05
-1.7138e-06
2.64835e-05
-1.75506e-06
2.73986e-05
-1.7941e-06
2.828e-05
-1.83193e-06
2.91307e-05
-1.86958e-06
2.99536e-05
-1.90802e-06
3.07519e-05
-1.94823e-06
3.15286e-05
-1.99144e-06
3.22864e-05
-2.03891e-06
3.30279e-05
-2.09182e-06
3.37559e-05
-2.15124e-06
3.44731e-05
-2.21818e-06
3.51823e-05
-2.29362e-06
3.58858e-05
-2.37851e-06
3.65861e-05
-2.47379e-06
3.72853e-05
-2.58061e-06
3.79856e-05
-2.69983e-06
3.86884e-05
-2.83176e-06
3.93951e-05
-2.97736e-06
4.01067e-05
-3.13735e-06
4.08239e-05
-3.31234e-06
4.15469e-05
-3.50292e-06
4.22757e-05
-3.70957e-06
4.30094e-05
-3.93278e-06
4.37468e-05
-4.17288e-06
4.44859e-05
-4.43021e-06
4.52239e-05
-4.70481e-06
4.59566e-05
-4.99657e-06
4.66797e-05
-5.30472e-06
4.73874e-05
-5.62831e-06
4.80734e-05
-5.96567e-06
4.87302e-05
-6.31478e-06
4.93497e-05
-6.67248e-06
4.99235e-05
-7.03516e-06
5.04432e-05
-7.39782e-06
5.09006e-05
-7.75522e-06
5.12887e-05
-8.10085e-06
5.16015e-05
-8.42845e-06
5.18346e-05
-8.7309e-06
5.19855e-05
-9.00218e-06
5.20539e-05
-9.23594e-06
5.20422e-05
-9.42785e-06
5.19548e-05
-9.5732e-06
5.17989e-05
-9.66945e-06
5.15824e-05
-9.71401e-06
5.13156e-05
-9.70647e-06
5.1008e-05
-9.64664e-06
5.06719e-05
-9.53719e-06
5.03161e-05
-9.38083e-06
4.99499e-05
-9.18137e-06
4.95796e-05
-8.94316e-06
4.92132e-05
-8.66883e-06
4.88533e-05
-8.364e-06
4.85049e-05
-8.03053e-06
4.81675e-05
-7.67667e-06
4.78438e-05
-7.30296e-06
4.75316e-05
-6.92016e-06
4.72327e-05
-6.52576e-06
4.69438e-05
-6.1331e-06
4.66661e-05
-5.73595e-06
4.63966e-05
-5.35127e-06
4.61363e-05
-4.96822e-06
4.58832e-05
-4.6077e-06
4.5638e-05
-4.2528e-06
4.53997e-05
-3.92912e-06
4.51682e-05
-3.61266e-06
4.49437e-05
-3.33497e-06
4.47246e-05
-3.06383e-06
4.45125e-05
-2.83814e-06
4.43037e-05
-2.6162e-06
4.41014e-05
-2.44593e-06
4.38989e-05
-2.27481e-06
4.37018e-05
-2.16169e-06
4.34995e-05
-2.04162e-06
4.32997e-05
-1.98611e-06
-1.92173e-06
3.86138e-05
1.07219e-08
3.85833e-05
-4.42891e-07
3.87239e-05
-7.67146e-07
3.89509e-05
-1.00969e-06
3.92264e-05
-1.21307e-06
3.95444e-05
-1.3947e-06
3.99063e-05
-1.55606e-06
4.03136e-05
-1.69028e-06
4.07461e-05
-1.79948e-06
4.11934e-05
-1.8892e-06
4.1649e-05
-1.96361e-06
4.21071e-05
-2.02568e-06
4.25638e-05
-2.07771e-06
4.30158e-05
-2.12148e-06
4.34607e-05
-2.15865e-06
4.38964e-05
-2.19082e-06
4.43219e-05
-2.21954e-06
4.47363e-05
-2.24629e-06
4.51393e-05
-2.27259e-06
4.55311e-05
-2.29985e-06
4.59123e-05
-2.32949e-06
4.62837e-05
-2.36283e-06
4.66461e-05
-2.40125e-06
4.70003e-05
-2.44601e-06
4.73473e-05
-2.49832e-06
4.76884e-05
-2.55925e-06
4.80246e-05
-2.62977e-06
4.83568e-05
-2.71076e-06
4.86861e-05
-2.80306e-06
4.90129e-05
-2.90743e-06
4.93376e-05
-3.02451e-06
4.96606e-05
-3.15477e-06
4.9982e-05
-3.2987e-06
5.03013e-05
-3.45672e-06
5.06182e-05
-3.62916e-06
5.09315e-05
-3.81625e-06
5.12401e-05
-4.01816e-06
5.15422e-05
-4.23491e-06
5.18358e-05
-4.46645e-06
5.21181e-05
-4.71254e-06
5.2386e-05
-4.97273e-06
5.26358e-05
-5.24632e-06
5.28633e-05
-5.53225e-06
5.30641e-05
-5.82906e-06
5.32332e-05
-6.13483e-06
5.33656e-05
-6.44719e-06
5.34564e-05
-6.76325e-06
5.35008e-05
-7.07953e-06
5.34948e-05
-7.39188e-06
5.34354e-05
-7.69579e-06
5.33208e-05
-7.98627e-06
5.31507e-05
-8.25833e-06
5.29265e-05
-8.50672e-06
5.26509e-05
-8.72657e-06
5.23285e-05
-8.91348e-06
5.19655e-05
-9.06487e-06
5.15692e-05
-9.17696e-06
5.11475e-05
-9.2477e-06
5.07081e-05
-9.27465e-06
5.02585e-05
-9.25685e-06
4.98047e-05
-9.19285e-06
4.93514e-05
-9.08392e-06
4.89012e-05
-8.93061e-06
4.8456e-05
-8.73609e-06
4.8015e-05
-8.50224e-06
4.7579e-05
-8.23283e-06
4.71454e-05
-7.93033e-06
4.67138e-05
-7.599e-06
4.62807e-05
-7.24357e-06
4.58471e-05
-6.86935e-06
4.54098e-05
-6.48282e-06
4.49716e-05
-6.08759e-06
4.45298e-05
-5.69125e-06
4.40889e-05
-5.29505e-06
4.36464e-05
-4.90875e-06
4.32082e-05
-4.53005e-06
4.27717e-05
-4.1712e-06
4.23435e-05
-3.82459e-06
4.19204e-05
-3.50605e-06
4.15089e-05
-3.20122e-06
4.11053e-05
-2.93133e-06
4.0715e-05
-2.67354e-06
4.03337e-05
-2.45682e-06
3.9965e-05
-2.24747e-06
3.96046e-05
-2.08551e-06
3.92535e-05
-1.92371e-06
3.89088e-05
-1.81699e-06
3.85676e-05
-1.7005e-06
3.82299e-05
-1.64833e-06
-1.57724e-06
5.29869e-05
8.83758e-08
5.28935e-05
-3.49445e-07
5.28649e-05
-7.3861e-07
5.2889e-05
-1.03381e-06
5.29348e-05
-1.25884e-06
5.29831e-05
-1.44297e-06
5.30302e-05
-1.60313e-06
5.30837e-05
-1.74381e-06
5.31484e-05
-1.86422e-06
5.32236e-05
-1.9644e-06
5.33062e-05
-2.04621e-06
5.3393e-05
-2.11244e-06
5.34813e-05
-2.16602e-06
5.35693e-05
-2.2095e-06
5.36557e-05
-2.24507e-06
5.37395e-05
-2.27461e-06
5.38199e-05
-2.29991e-06
5.38963e-05
-2.32267e-06
5.39683e-05
-2.34458e-06
5.40357e-05
-2.36725e-06
5.40984e-05
-2.39226e-06
5.41567e-05
-2.42108e-06
5.42105e-05
-2.45511e-06
5.42602e-05
-2.49568e-06
5.43059e-05
-2.54402e-06
5.43478e-05
-2.60118e-06
5.43862e-05
-2.66813e-06
5.44211e-05
-2.74568e-06
5.44526e-05
-2.83457e-06
5.44806e-05
-2.93539e-06
5.45047e-05
-3.04867e-06
5.45248e-05
-3.17482e-06
5.45402e-05
-3.31417e-06
5.45505e-05
-3.46693e-06
5.45546e-05
-3.63329e-06
5.45516e-05
-3.81329e-06
5.45404e-05
-4.00692e-06
5.45195e-05
-4.21401e-06
5.44874e-05
-4.43433e-06
5.44423e-05
-4.66742e-06
5.43822e-05
-4.91271e-06
5.43052e-05
-5.16931e-06
5.42091e-05
-5.43612e-06
5.40917e-05
-5.71162e-06
5.39507e-05
-5.99383e-06
5.3784e-05
-6.28056e-06
5.35902e-05
-6.56943e-06
5.33679e-05
-6.85726e-06
5.31165e-05
-7.14048e-06
5.28359e-05
-7.4152e-06
5.25269e-05
-7.67721e-06
5.21907e-05
-7.92216e-06
5.18296e-05
-8.14556e-06
5.1446e-05
-8.34303e-06
5.1043e-05
-8.51043e-06
5.06223e-05
-8.64426e-06
5.01864e-05
-8.74098e-06
4.97363e-05
-8.79764e-06
4.92732e-05
-8.81153e-06
4.87962e-05
-8.77985e-06
4.83038e-05
-8.70048e-06
4.77934e-05
-8.57346e-06
4.72624e-05
-8.39965e-06
4.67081e-05
-8.18179e-06
4.61274e-05
-7.92159e-06
4.55188e-05
-7.6242e-06
4.48821e-05
-7.29366e-06
4.42186e-05
-6.93542e-06
4.35294e-05
-6.55437e-06
4.28184e-05
-6.15842e-06
4.20886e-05
-5.75298e-06
4.13464e-05
-5.34535e-06
4.05954e-05
-4.94025e-06
3.98441e-05
-4.54384e-06
3.90956e-05
-4.16019e-06
3.83588e-05
-3.79327e-06
3.76343e-05
-3.44666e-06
3.69314e-05
-3.12169e-06
3.62477e-05
-2.82237e-06
3.55928e-05
-2.54633e-06
3.49606e-05
-2.29915e-06
3.43608e-05
-2.07378e-06
3.37837e-05
-1.87963e-06
3.32386e-05
-1.70238e-06
3.2712e-05
-1.55896e-06
3.2214e-05
-1.42569e-06
3.17283e-05
-1.33133e-06
3.12651e-05
-1.23724e-06
3.08072e-05
-1.19047e-06
-1.12608e-06
5.43226e-05
-2.31768e-07
5.45045e-05
-5.31374e-07
5.46087e-05
-8.42805e-07
5.46961e-05
-1.12123e-06
5.47832e-05
-1.34586e-06