/*--------------------------------*- C++ -*----------------------------------*\
| =========                 |                                                 |
| \\      /  F ield         | OpenFOAM: The Open Source CFD Toolbox           |
|  \\    /   O peration     | Version:  2306                                  |
|   \\  /    A nd           | Website:  www.openfoam.com                      |
|    \\/     M anipulation  |                                                 |
\*---------------------------------------------------------------------------*/
FoamFile
{
    version     2.0;
    format      ascii;
    arch        "LSB;label=32;scalar=64";
    class       volVectorField;
    location    "4";
    object      U;
}
// * * * * * * * * * * * * * * * * * * * * * * * * * * * * * * * * * * * * * //

dimensions      [0 1 -1 0 0 0 0];

internalField   nonuniform List<vector> 
1900
(
(0.984284 0.00728539 0)
(0.961751 0.021689 0)
(0.952347 0.0181673 0)
(0.9187 0.0253069 0)
(0.903452 0.0154263 0)
(0.863085 0.0257502 0)
(0.852334 0.011574 0)
(0.812018 0.0267217 0)
(0.809788 0.00451663 0)
(0.770614 0.0259453 0)
(1.00256 0.0115579 0)
(1.00445 0.0258588 0)
(1.01944 0.0289572 0)
(1.02198 0.030446 0)
(1.03489 0.027989 0)
(1.03399 0.0283969 0)
(1.0441 0.0257514 0)
(1.04284 0.0250448 0)
(1.05127 0.0205938 0)
(1.05236 0.0160939 0)
(1.00048 0.00388418 0)
(1.00419 0.0111506 0)
(1.01255 0.0139888 0)
(1.02113 0.0157735 0)
(1.03155 0.0146904 0)
(1.04055 0.0143902 0)
(1.05 0.0123324 0)
(1.05842 0.0108711 0)
(1.0669 0.00722534 0)
(1.07474 0.00303808 0)
(1.00007 0.00207509 0)
(1.00313 0.00583715 0)
(1.00888 0.00804411 0)
(1.01649 0.00901829 0)
(1.02528 0.00853074 0)
(1.03432 0.00742095 0)
(1.04325 0.00562759 0)
(1.05181 0.00344869 0)
(1.05999 0.00060129 0)
(1.06766 -0.0029415 0)
(1.00003 0.000422619 0)
(1.00261 0.00116575 0)
(1.00738 0.00142357 0)
(1.01402 0.00113589 0)
(1.02192 0.000229166 0)
(1.03035 -0.00114632 0)
(1.03879 -0.00295415 0)
(1.04691 -0.00517467 0)
(1.05459 -0.00785366 0)
(1.06173 -0.0110563 0)
(1.00003 -0.00106241 0)
(1.00255 -0.00303264 0)
(1.0072 -0.00475903 0)
(1.01366 -0.00620308 0)
(1.02132 -0.00751038 0)
(1.02948 -0.00888264 0)
(1.03758 -0.0105059 0)
(1.04531 -0.012492 0)
(1.05257 -0.0148812 0)
(1.05934 -0.0176445 0)
(1.00003 -0.00271196 0)
(1.00303 -0.00743646 0)
(1.00836 -0.0110661 0)
(1.01545 -0.0135068 0)
(1.02346 -0.0151364 0)
(1.03162 -0.0165047 0)
(1.03948 -0.0180172 0)
(1.04687 -0.0198522 0)
(1.05378 -0.0220031 0)
(1.06026 -0.0243804 0)
(1.00004 -0.00477014 0)
(1.00441 -0.0122359 0)
(1.01137 -0.0169216 0)
(1.01979 -0.0193548 0)
(1.02838 -0.0206842 0)
(1.03638 -0.0218588 0)
(1.04358 -0.0233275 0)
(1.05004 -0.0251174 0)
(1.0559 -0.0270877 0)
(1.0612 -0.0291052 0)
(1.00006 -0.0121192 0)
(1.00721 -0.0259531 0)
(1.01558 -0.0314314 0)
(1.02287 -0.032581 0)
(1.02793 -0.0326659 0)
(1.03071 -0.0330426 0)
(1.03172 -0.0338234 0)
(1.0314 -0.0347455 0)
(1.02997 -0.0355933 0)
(1.02746 -0.036308 0)
(0.980777 -0.00916363 0)
(0.964585 -0.0188219 0)
(0.945456 -0.0220467 0)
(0.920786 -0.0221863 0)
(0.891993 -0.0217405 0)
(0.861675 -0.0215797 0)
(0.831428 -0.0216122 0)
(0.801733 -0.0216028 0)
(0.772517 -0.0214275 0)
(0.743538 -0.0211019 0)
(0.000206857 -0.000108615 0)
(0.000344907 -1.9612e-05 0)
(8.44444e-05 2.72973e-05 0)
(-0.000395313 5.58846e-05 0)
(-0.0010353 7.32183e-05 0)
(-0.00179418 9.01255e-05 0)
(-0.00265889 0.000110013 0)
(-0.00362463 0.000131677 0)
(-0.00468615 0.000153855 0)
(-0.00583712 0.000175867 0)
(-0.0070706 0.000197342 0)
(-0.00837932 0.000218033 0)
(-0.00975597 0.000237713 0)
(-0.0111934 0.000256184 0)
(-0.0126848 0.000273286 0)
(-0.0142236 0.000288903 0)
(-0.0158039 0.00030297 0)
(-0.0174205 0.000315466 0)
(-0.0190685 0.000326393 0)
(-0.0207442 0.000335797 0)
(-0.0224448 0.000343779 0)
(-0.0241691 0.000350469 0)
(-0.025917 0.000355995 0)
(-0.0276898 0.000360455 0)
(-0.0294905 0.000363909 0)
(-0.0313233 0.000366328 0)
(-0.0331941 0.000367503 0)
(-0.0351096 0.000366917 0)
(-0.0370775 0.000363665 0)
(-0.0391064 0.000356371 0)
(-0.041205 0.000343249 0)
(-0.0433837 0.000322487 0)
(-0.0456555 0.000293192 0)
(-0.0480396 0.000256813 0)
(-0.050566 0.000218705 0)
(-0.0532803 0.000189869 0)
(-0.0562497 0.00018868 0)
(-0.0595684 0.000242151 0)
(-0.0633606 0.000385887 0)
(-0.0677801 0.00066154 0)
(-0.0730018 0.00110994 0)
(-0.0792035 0.00175915 0)
(-0.0865375 0.00261 0)
(-0.0950931 0.003624 0)
(-0.104857 0.00472131 0)
(-0.115685 0.00579188 0)
(-0.127296 0.0067151 0)
(-0.139287 0.00737773 0)
(-0.151168 0.00769525 0)
(-0.162423 0.00764015 0)
(-0.172556 0.00724361 0)
(-0.181099 0.00658188 0)
(-0.187629 0.00574461 0)
(-0.191852 0.00478513 0)
(-0.193546 0.00364316 0)
(-0.192619 0.00233539 0)
(-0.189081 0.000949803 0)
(-0.182928 -0.000456007 0)
(-0.17425 -0.00182723 0)
(-0.163202 -0.00312256 0)
(-0.149981 -0.00431022 0)
(-0.134839 -0.00536317 0)
(-0.118018 -0.00625689 0)
(-0.0998089 -0.00698445 0)
(-0.0805127 -0.00753882 0)
(-0.0603956 -0.00790337 0)
(-0.0398637 -0.00809271 0)
(-0.0190325 -0.00814623 0)
(0.00160232 -0.00805768 0)
(0.0221364 -0.00785428 0)
(0.0419265 -0.00752585 0)
(0.061308 -0.00711964 0)
(0.0795019 -0.00661727 0)
(0.0971173 -0.00608169 0)
(0.113219 -0.00548812 0)
(0.128699 -0.00491897 0)
(0.14243 -0.00432101 0)
(0.155647 -0.00378232 0)
(0.166951 -0.00322539 0)
(0.178 -0.00275862 0)
(0.186996 -0.00227876 0)
(0.196156 -0.00191885 0)
(0.20308 -0.00154348 0)
(0.210794 -0.00131726 0)
(0.215937 -0.00106533 0)
(0.222813 -0.000997218 0)
(0.226412 -0.000877235 0)
(0.233279 -0.000998878 0)
(0.235312 -0.000964558 0)
(0.243571 -0.00140731 0)
(6.21341e-05 -0.000518188 0)
(-0.000522901 0.000140198 0)
(-0.00201224 0.000707868 0)
(-0.00391341 0.00110775 0)
(-0.00619476 0.0013829 0)
(-0.00878395 0.00160159 0)
(-0.0116449 0.00179976 0)
(-0.0147503 0.00198499 0)
(-0.018072 0.00215722 0)
(-0.0215829 0.00231567 0)
(-0.0252577 0.00245975 0)
(-0.0290722 0.00258932 0)
(-0.0330042 0.00270476 0)
(-0.0370333 0.00280675 0)
(-0.0411414 0.00289618 0)
(-0.0453129 0.00297412 0)
(-0.0495351 0.00304177 0)
(-0.0537977 0.00310048 0)
(-0.0580937 0.00315175 0)
(-0.062419 0.00319759 0)
(-0.0667731 0.00324044 0)
(-0.0711592 0.00328302 0)
(-0.075584 0.00332815 0)
(-0.0800577 0.00337876 0)
(-0.0845941 0.00343789 0)
(-0.0892106 0.00350863 0)
(-0.0939279 0.00359403 0)
(-0.0987702 0.00369687 0)
(-0.103765 0.00381982 0)
(-0.108941 0.00396574 0)
(-0.114332 0.00413836 0)
(-0.119972 0.00434359 0)
(-0.125901 0.00459151 0)
(-0.132158 0.00489806 0)
(-0.138787 0.00528503 0)
(-0.145835 0.00578003 0)
(-0.15334 0.00641505 0)
(-0.161332 0.00722279 0)
(-0.169821 0.00822975 0)
(-0.178784 0.00944623 0)
(-0.188159 0.0108542 0)
(-0.197833 0.0123962 0)
(-0.207636 0.0139723 0)
(-0.217337 0.0154417 0)
(-0.22665 0.0166388 0)
(-0.23525 0.0173988 0)
(-0.242792 0.0175852 0)
(-0.248927 0.0171041 0)
(-0.253304 0.0159097 0)
(-0.255609 0.0140319 0)
(-0.25556 0.0115382 0)
(-0.25293 0.00848099 0)
(-0.247621 0.00496073 0)
(-0.239694 0.00111127 0)
(-0.229054 -0.00293049 0)
(-0.215751 -0.00704133 0)
(-0.199801 -0.0111127 0)
(-0.181371 -0.0150375 0)
(-0.160567 -0.0187413 0)
(-0.137673 -0.02211 0)
(-0.112841 -0.02508 0)
(-0.0864246 -0.0276515 0)
(-0.0586469 -0.0298191 0)
(-0.0298044 -0.0315502 0)
(-0.00027537 -0.0328331 0)
(0.0299778 -0.033661 0)
(0.0600971 -0.0340664 0)
(0.0905661 -0.0340722 0)
(0.120094 -0.0336999 0)
(0.149873 -0.03301 0)
(0.177969 -0.0319983 0)
(0.2063 -0.0307675 0)
(0.232257 -0.0292881 0)
(0.258598 -0.0277008 0)
(0.281922 -0.0259413 0)
(0.305976 -0.0241856 0)
(0.326375 -0.0223264 0)
(0.348112 -0.0205693 0)
(0.365469 -0.0187551 0)
(0.385065 -0.0171286 0)
(0.399376 -0.015472 0)
(0.417207 -0.0140818 0)
(0.428537 -0.0126685 0)
(0.445166 -0.0115981 0)
(0.453604 -0.0104898 0)
(0.469773 -0.00980848 0)
(0.475389 -0.00904633 0)
(0.49201 -0.00882006 0)
(0.494815 -0.00842539 0)
(0.512914 -0.008751 0)
(-0.000158197 0.00042482 0)
(-0.00193863 0.00228436 0)
(-0.0054076 0.00349411 0)
(-0.00934745 0.00430073 0)
(-0.0137244 0.00493023 0)
(-0.0184385 0.00548983 0)
(-0.02345 0.00600408 0)
(-0.0287218 0.0064724 0)
(-0.0342025 0.00689033 0)
(-0.0398425 0.00725671 0)
(-0.045597 0.007572 0)
(-0.051426 0.00783852 0)
(-0.0572954 0.00806014 0)
(-0.0631767 0.0082415 0)
(-0.0690467 0.00838762 0)
(-0.0748876 0.00850384 0)
(-0.0806863 0.0085957 0)
(-0.0864338 0.0086692 0)
(-0.092125 0.00873101 0)
(-0.097758 0.00878795 0)
(-0.103335 0.00884699 0)
(-0.10886 0.00891519 0)
(-0.114341 0.00899948 0)
(-0.119787 0.0091066 0)
(-0.125208 0.00924313 0)
(-0.130615 0.0094155 0)
(-0.136016 0.00962966 0)
(-0.141423 0.0098906 0)
(-0.146841 0.0102024 0)
(-0.152273 0.0105685 0)
(-0.157719 0.0109917 0)
(-0.163171 0.0114749 0)
(-0.168615 0.0120216 0)
(-0.174029 0.0126372 0)
(-0.179386 0.0133294 0)
(-0.184644 0.0141053 0)
(-0.189748 0.0149689 0)
(-0.194623 0.0159181 0)
(-0.199175 0.0169385 0)
(-0.203287 0.0179982 0)
(-0.206817 0.0190434 0)
(-0.209599 0.019995 0)
(-0.211449 0.0207398 0)
(-0.212167 0.0211288 0)
(-0.21155 0.0209986 0)
(-0.209397 0.0201955 0)
(-0.205539 0.0186125 0)
(-0.199848 0.0162066 0)
(-0.192169 0.0129187 0)
(-0.182444 0.00879249 0)
(-0.170734 0.00391766 0)
(-0.156901 -0.0015913 0)
(-0.14104 -0.00767205 0)
(-0.123177 -0.0141245 0)
(-0.103167 -0.020755 0)
(-0.0813764 -0.0272996 0)
(-0.0577031 -0.0336707 0)
(-0.0325354 -0.0397085 0)
(-0.00573172 -0.0453413 0)
(0.0223062 -0.0503796 0)
(0.0516641 -0.0548337 0)
(0.0818029 -0.0585642 0)
(0.112564 -0.0616376 0)
(0.143896 -0.0639679 0)
(0.175153 -0.0656163 0)
(0.206837 -0.0665109 0)
(0.237642 -0.0667888 0)
(0.268862 -0.0664134 0)
(0.298348 -0.0654807 0)
(0.328375 -0.0640138 0)
(0.355848 -0.0620981 0)
(0.384153 -0.0598013 0)
(0.409099 -0.0571866 0)
(0.435363 -0.0543549 0)
(0.457449 -0.0513354 0)
(0.481571 -0.0482497 0)
(0.50064 -0.0450889 0)
(0.522723 -0.0419979 0)
(0.538744 -0.0389243 0)
(0.559057 -0.0360361 0)
(0.572088 -0.0332312 0)
(0.59104 -0.0307087 0)
(0.601188 -0.0283092 0)
(0.619304 -0.0262771 0)
(0.626698 -0.0243834 0)
(0.644603 -0.0229387 0)
(0.649373 -0.0216255 0)
(0.667774 -0.0208534 0)
(0.670027 -0.0201891 0)
(0.689669 -0.020169 0)
(-0.000918 0.0012044 0)
(-0.00478278 0.00507669 0)
(-0.0106832 0.00754128 0)
(-0.0167319 0.00919276 0)
(-0.02311 0.0104229 0)
(-0.0297707 0.0114046 0)
(-0.0366312 0.0122096 0)
(-0.0435963 0.0128745 0)
(-0.0505773 0.0134134 0)
(-0.0575041 0.0138385 0)
(-0.0643229 0.0141627 0)
(-0.0709909 0.0143982 0)
(-0.0774761 0.0145569 0)
(-0.0837564 0.0146504 0)
(-0.0898166 0.0146902 0)
(-0.0956473 0.0146871 0)
(-0.101243 0.0146513 0)
(-0.106602 0.0145925 0)
(-0.111723 0.0145206 0)
(-0.116609 0.014445 0)
(-0.121264 0.0143747 0)
(-0.125689 0.0143179 0)
(-0.129887 0.0142816 0)
(-0.133859 0.0142717 0)
(-0.137604 0.014293 0)
(-0.141117 0.0143492 0)
(-0.144392 0.0144429 0)
(-0.147418 0.0145743 0)
(-0.150179 0.0147418 0)
(-0.152654 0.014942 0)
(-0.154817 0.0151703 0)
(-0.156635 0.015421 0)
(-0.158064 0.0156888 0)
(-0.159054 0.0159697 0)
(-0.159548 0.0162639 0)
(-0.159477 0.0165697 0)
(-0.158765 0.0168796 0)
(-0.157319 0.0171785 0)
(-0.155038 0.0174378 0)
(-0.151801 0.0176107 0)
(-0.147476 0.017632 0)
(-0.141929 0.0174233 0)
(-0.135057 0.016888 0)
(-0.126741 0.0158734 0)
(-0.116895 0.0142261 0)
(-0.105428 0.0117966 0)
(-0.0922583 0.00848994 0)
(-0.0775466 0.00427299 0)
(-0.06117 -0.000814688 0)
(-0.043221 -0.00675047 0)
(-0.023765 -0.0134815 0)
(-0.00274644 -0.0208218 0)
(0.0198207 -0.0285674 0)
(0.0436106 -0.0364573 0)
(0.0689291 -0.0444338 0)
(0.0952558 -0.0522849 0)
(0.122996 -0.059923 0)
(0.1515 -0.0671147 0)
(0.181191 -0.0738162 0)
(0.211339 -0.0797166 0)
(0.242287 -0.0849402 0)
(0.273481 -0.0892461 0)
(0.304893 -0.0927319 0)
(0.336339 -0.0952002 0)
(0.36734 -0.0968078 0)
(0.398278 -0.0974203 0)
(0.428044 -0.0972319 0)
(0.457787 -0.0961627 0)
(0.485618 -0.0944139 0)
(0.513631 -0.0919484 0)
(0.538998 -0.0889685 0)
(0.564938 -0.0854723 0)
(0.587494 -0.0816463 0)
(0.611211 -0.0775125 0)
(0.630789 -0.0732267 0)
(0.65232 -0.0688275 0)
(0.668898 -0.0644298 0)
(0.688438 -0.0600885 0)
(0.702101 -0.0558696 0)
(0.719965 -0.0518485 0)
(0.730865 -0.0480344 0)
(0.747461 -0.044534 0)
(0.755786 -0.0412912 0)
(0.771588 -0.0384603 0)
(0.777534 -0.0359087 0)
(0.79307 -0.0338605 0)
(0.796828 -0.0320899 0)
(0.812666 -0.0309193 0)
(0.8144 -0.0300045 0)
(0.831141 -0.0297955 0)
(-0.0012734 0.00690383 0)
(-0.00685512 0.0137354 0)
(-0.0154745 0.0163507 0)
(-0.0239704 0.0175051 0)
(-0.0324893 0.0183433 0)
(-0.0407858 0.0191382 0)
(-0.0487307 0.0198384 0)
(-0.0562817 0.0203654 0)
(-0.0634077 0.0206997 0)
(-0.0700746 0.0208668 0)
(-0.0762625 0.0208955 0)
(-0.0819635 0.0208105 0)
(-0.0871789 0.0206339 0)
(-0.0919163 0.0203852 0)
(-0.0961876 0.0200811 0)
(-0.100007 0.0197364 0)
(-0.10339 0.0193634 0)
(-0.106349 0.0189722 0)
(-0.108898 0.0185722 0)
(-0.111047 0.0181724 0)
(-0.112806 0.0177809 0)
(-0.114181 0.0174043 0)
(-0.115175 0.0170475 0)
(-0.115788 0.0167128 0)
(-0.116015 0.0164012 0)
(-0.115845 0.0161121 0)
(-0.115267 0.0158448 0)
(-0.114263 0.0155947 0)
(-0.11281 0.0153539 0)
(-0.110882 0.0151128 0)
(-0.108446 0.01486 0)
(-0.105462 0.0145831 0)
(-0.101883 0.0142698 0)
(-0.0976523 0.0139104 0)
(-0.0927122 0.0135028 0)
(-0.0869969 0.0130416 0)
(-0.0804282 0.0125055 0)
(-0.0729244 0.0118712 0)
(-0.0643945 0.0111062 0)
(-0.0547387 0.0101626 0)
(-0.0438405 0.00896909 0)
(-0.0315848 0.00742395 0)
(-0.0179806 0.0054223 0)
(-0.00292387 0.00287782 0)
(0.0135888 -0.00032792 0)
(0.0315078 -0.0042826 0)
(0.0509296 -0.00906723 0)
(0.0716025 -0.0147388 0)
(0.0937597 -0.0212852 0)
(0.117105 -0.0286107 0)
(0.141766 -0.0365773 0)
(0.167354 -0.0450652 0)
(0.194237 -0.0539424 0)
(0.221777 -0.0629633 0)
(0.250519 -0.0720331 0)
(0.279677 -0.0808717 0)
(0.309881 -0.0894083 0)
(0.340216 -0.0973447 0)
(0.371323 -0.104652 0)
(0.402231 -0.111034 0)
(0.433522 -0.116543 0)
(0.464299 -0.120929 0)
(0.494983 -0.124305 0)
(0.524884 -0.126466 0)
(0.554177 -0.127598 0)
(0.582548 -0.12755 0)
(0.609797 -0.12656 0)
(0.636148 -0.124524 0)
(0.660882 -0.121715 0)
(0.68492 -0.118063 0)
(0.706857 -0.113858 0)
(0.728478 -0.10905 0)
(0.747511 -0.103927 0)
(0.766778 -0.0984466 0)
(0.782942 -0.092875 0)
(0.800049 -0.0871686 0)
(0.813478 -0.081561 0)
(0.828714 -0.076007 0)
(0.839602 -0.0706993 0)
(0.853316 -0.065596 0)
(0.861885 -0.0608439 0)
(0.874465 -0.0564137 0)
(0.880937 -0.052402 0)
(0.892793 -0.0488054 0)
(0.897377 -0.0456647 0)
(0.908936 -0.0430186 0)
(0.911817 -0.0408434 0)
(0.923518 -0.0392405 0)
(0.924846 -0.038109 0)
(0.937139 -0.0376398 0)
(-0.00367575 0.00677406 0)
(-0.0134993 0.0172003 0)
(-0.0245644 0.0219186 0)
(-0.0337074 0.0245906 0)
(-0.0420125 0.0262034 0)
(-0.0496733 0.0270749 0)
(-0.0566449 0.0273796 0)
(-0.0627971 0.0273015 0)
(-0.0680347 0.0269775 0)
(-0.0723573 0.0264791 0)
(-0.0758195 0.025853 0)
(-0.0784791 0.0251316 0)
(-0.0803943 0.0243429 0)
(-0.0816209 0.0235097 0)
(-0.0822103 0.0226495 0)
(-0.0822093 0.0217761 0)
(-0.0816594 0.0209001 0)
(-0.0805943 0.0200273 0)
(-0.0790426 0.0191634 0)
(-0.0770275 0.0183141 0)
(-0.074567 0.0174834 0)
(-0.0716737 0.0166734 0)
(-0.0683549 0.015884 0)
(-0.0646108 0.0151122 0)
(-0.0604355 0.0143537 0)
(-0.055814 0.013603 0)
(-0.0507371 0.0128595 0)
(-0.045182 0.0121159 0)
(-0.0391223 0.0113588 0)
(-0.0325278 0.010574 0)
(-0.0253648 0.00974654 0)
(-0.0175924 0.00885971 0)
(-0.00916272 0.00789483 0)
(-3.32963e-06 0.00682718 0)
(0.00992845 0.00562807 0)
(0.0206707 0.00427833 0)
(0.032313 0.00277024 0)
(0.0449266 0.00108089 0)
(0.058591 -0.000828332 0)
(0.0733808 -0.00300705 0)
(0.0893702 -0.00551199 0)
(0.106626 -0.00841435 0)
(0.125171 -0.0118112 0)
(0.14505 -0.0157923 0)
(0.166368 -0.0204633 0)
(0.188931 -0.0258579 0)
(0.212879 -0.0320382 0)
(0.237892 -0.0389605 0)
(0.264195 -0.0466482 0)
(0.291331 -0.0550146 0)
(0.319616 -0.0639821 0)
(0.348419 -0.0733628 0)
(0.378208 -0.0830463 0)
(0.408185 -0.0927755 0)
(0.438937 -0.102437 0)
(0.46951 -0.111739 0)
(0.500595 -0.120591 0)
(0.531093 -0.128689 0)
(0.561775 -0.135989 0)
(0.591444 -0.142203 0)
(0.620934 -0.147358 0)
(0.649029 -0.151214 0)
(0.676597 -0.153885 0)
(0.702497 -0.155184 0)
(0.72758 -0.155311 0)
(0.750882 -0.15413 0)
(0.773147 -0.151912 0)
(0.793685 -0.148558 0)
(0.81302 -0.144393 0)
(0.830836 -0.139339 0)
(0.847304 -0.13375 0)
(0.862593 -0.12755 0)
(0.876381 -0.121099 0)
(0.889436 -0.114305 0)
(0.900798 -0.107519 0)
(0.911965 -0.100625 0)
(0.92118 -0.0939516 0)
(0.930819 -0.0873568 0)
(0.938157 -0.0811473 0)
(0.946618 -0.0751571 0)
(0.952326 -0.0696698 0)
(0.959941 -0.0645031 0)
(0.964231 -0.0599189 0)
(0.971313 -0.0557275 0)
(0.974361 -0.0521695 0)
(0.981208 -0.0490587 0)
(0.98315 -0.0466133 0)
(0.990048 -0.0446633 0)
(0.990973 -0.0434014 0)
(0.9982 -0.0426904 0)
(-0.00179567 0.0287803 0)
(-0.00959628 0.0405105 0)
(-0.0241456 0.0404459 0)
(-0.0355979 0.0380348 0)
(-0.044684 0.0362031 0)
(-0.0511507 0.0347324 0)
(-0.0552962 0.0332702 0)
(-0.0575157 0.0317413 0)
(-0.0581695 0.0301591 0)
(-0.0575339 0.0285477 0)
(-0.0557973 0.0269305 0)
(-0.0531051 0.0253208 0)
(-0.0495817 0.0237356 0)
(-0.0453312 0.0221864 0)
(-0.0404418 0.0206793 0)
(-0.0349866 0.0192167 0)
(-0.0290315 0.0178 0)
(-0.0226184 0.0164204 0)
(-0.0157865 0.0150763 0)
(-0.00856749 0.0137701 0)
(-0.00098234 0.0125011 0)
(0.00695441 0.0112668 0)
(0.0152362 0.0100622 0)
(0.0238697 0.00887662 0)
(0.0328617 0.00769948 0)
(0.0422539 0.00651452 0)
(0.0520391 0.00530086 0)
(0.0622451 0.00404531 0)
(0.0729124 0.00274132 0)
(0.0840795 0.00137536 0)
(0.0957849 -7.22931e-05 0)
(0.108078 -0.00162491 0)
(0.120998 -0.00330533 0)
(0.134605 -0.00513695 0)
(0.148941 -0.00714417 0)
(0.164051 -0.00936072 0)
(0.180027 -0.0118133 0)
(0.196926 -0.0145319 0)
(0.214815 -0.0175503 0)
(0.233731 -0.0209168 0)
(0.253757 -0.0246797 0)
(0.27489 -0.0288989 0)
(0.297226 -0.0336169 0)
(0.320673 -0.0389023 0)
(0.345353 -0.0448245 0)
(0.371044 -0.0514186 0)
(0.397876 -0.0587086 0)
(0.425492 -0.0666672 0)
(0.454068 -0.0752682 0)
(0.48311 -0.0844115 0)
(0.512865 -0.0940034 0)
(0.54268 -0.103856 0)
(0.572897 -0.113835 0)
(0.602708 -0.1237 0)
(0.632578 -0.133305 0)
(0.661547 -0.142383 0)
(0.690228 -0.150812 0)
(0.717517 -0.158323 0)
(0.744198 -0.164848 0)
(0.769055 -0.170141 0)
(0.793058 -0.174215 0)
(0.814917 -0.176871 0)
(0.835792 -0.178217 0)
(0.854367 -0.17811 0)
(0.871964 -0.17676 0)
(0.887277 -0.174069 0)
(0.901725 -0.170329 0)
(0.914044 -0.165472 0)
(0.925665 -0.159848 0)
(0.935403 -0.153393 0)
(0.944616 -0.146491 0)
(0.952245 -0.139055 0)
(0.959484 -0.13148 0)
(0.965467 -0.123642 0)
(0.971132 -0.115932 0)
(0.975875 -0.108179 0)
(0.9803 -0.100769 0)
(0.984143 -0.0934828 0)
(0.98759 -0.0867023 0)
(0.990805 -0.0801627 0)
(0.99347 -0.074246 0)
(0.996272 -0.0686455 0)
(0.998296 -0.0637507 0)
(1.00086 -0.0592172 0)
(1.00233 -0.0554488 0)
(1.00479 -0.0520677 0)
(1.00578 -0.049498 0)
(1.00826 -0.0473326 0)
(1.00877 -0.0460201 0)
(1.01136 -0.0451271 0)
(-0.0196444 0.00822973 0)
(-0.0379407 0.0319134 0)
(-0.0411863 0.0392462 0)
(-0.0433299 0.0400392 0)
(-0.0422485 0.0383819 0)
(-0.0388071 0.0356251 0)
(-0.0334596 0.0325576 0)
(-0.0265446 0.0295076 0)
(-0.0183202 0.0265816 0)
(-0.00906766 0.0238407 0)
(0.00102643 0.0212665 0)
(0.0118038 0.018831 0)
(0.0231101 0.0165307 0)
(0.034835 0.01436 0)
(0.0468903 0.0123104 0)
(0.0592162 0.0103721 0)
(0.071728 0.00854012 0)
(0.0844292 0.00680972 0)
(0.0972953 0.00516343 0)
(0.110295 0.00357546 0)
(0.123423 0.0020261 0)
(0.136675 0.000501659 0)
(0.15005 -0.00100881 0)
(0.163583 -0.00251356 0)
(0.177283 -0.00402561 0)
(0.191197 -0.00556364 0)
(0.205337 -0.00714948 0)
(0.219748 -0.0088077 0)
(0.234482 -0.0105581 0)
(0.249589 -0.0124211 0)
(0.265109 -0.0144172 0)
(0.281094 -0.0165718 0)
(0.29759 -0.0189086 0)
(0.31465 -0.0214547 0)
(0.332321 -0.0242303 0)
(0.350653 -0.027258 0)
(0.369697 -0.0305654 0)
(0.389495 -0.0341898 0)
(0.410095 -0.0381611 0)
(0.431512 -0.0425202 0)
(0.453794 -0.0473009 0)
(0.476915 -0.0525483 0)
(0.500913 -0.0582964 0)
(0.525693 -0.0645851 0)
(0.551277 -0.0714392 0)
(0.577476 -0.0788713 0)
(0.604296 -0.0868664 0)
(0.631437 -0.095383 0)
(0.658908 -0.104353 0)
(0.686299 -0.113672 0)
(0.713657 -0.123221 0)
(0.740441 -0.132836 0)
(0.766777 -0.142359 0)
(0.792004 -0.151581 0)
(0.816385 -0.160332 0)
(0.839145 -0.168383 0)
(0.860745 -0.175592 0)
(0.880296 -0.181742 0)
(0.898514 -0.186752 0)
(0.914397 -0.19044 0)
(0.928951 -0.192816 0)
(0.941055 -0.19375 0)
(0.952011 -0.193356 0)
(0.960567 -0.191548 0)
(0.968312 -0.188541 0)
(0.973838 -0.184285 0)
(0.978971 -0.179079 0)
(0.982129 -0.172884 0)
(0.985317 -0.166059 0)
(0.986776 -0.158543 0)
(0.988638 -0.150728 0)
(0.988979 -0.142506 0)
(0.990017 -0.134283 0)
(0.98969 -0.125895 0)
(0.990266 -0.117753 0)
(0.98958 -0.109632 0)
(0.989928 -0.101953 0)
(0.989077 -0.094429 0)
(0.989336 -0.0874944 0)
(0.988431 -0.0808031 0)
(0.988674 -0.0748092 0)
(0.987768 -0.0691096 0)
(0.988023 -0.0641862 0)
(0.987134 -0.059581 0)
(0.987401 -0.0558125 0)
(0.986522 -0.0523684 0)
(0.986776 -0.0498125 0)
(0.98588 -0.0475784 0)
(0.986069 -0.0462821 0)
(0.985109 -0.0452994 0)
(-0.0190356 0.108044 0)
(-0.0182275 0.0727922 0)
(-0.0113799 0.0580617 0)
(0.00113672 0.0461591 0)
(0.0175192 0.0363364 0)
(0.0360786 0.0287832 0)
(0.0558634 0.0228476 0)
(0.0761547 0.0179684 0)
(0.0967255 0.0137648 0)
(0.1171 0.0100551 0)
(0.137308 0.00677241 0)
(0.157333 0.00387093 0)
(0.177047 0.00127756 0)
(0.196436 -0.00107774 0)
(0.215485 -0.00324191 0)
(0.234213 -0.00524614 0)
(0.252599 -0.00711481 0)
(0.270679 -0.00887034 0)
(0.288464 -0.0105349 0)
(0.30596 -0.0121358 0)
(0.323192 -0.0137009 0)
(0.340194 -0.0152547 0)
(0.357001 -0.0168163 0)
(0.373671 -0.0184041 0)
(0.390241 -0.0200353 0)
(0.406759 -0.0217322 0)
(0.423269 -0.0235136 0)
(0.439827 -0.0254016 0)
(0.456482 -0.0274205 0)
(0.473295 -0.0295967 0)
(0.490308 -0.0319528 0)
(0.507577 -0.0345132 0)
(0.525139 -0.037298 0)
(0.543045 -0.0403316 0)
(0.561323 -0.0436327 0)
(0.580014 -0.0472256 0)
(0.599137 -0.0511298 0)
(0.618719 -0.0553726 0)
(0.638763 -0.0599728 0)
(0.659274 -0.064958 0)
(0.68023 -0.0703448 0)
(0.701603 -0.0761594 0)
(0.723346 -0.082413 0)
(0.745373 -0.0891248 0)
(0.767596 -0.0962898 0)
(0.789867 -0.103902 0)
(0.812062 -0.111918 0)
(0.833957 -0.120286 0)
(0.855411 -0.128913 0)
(0.876133 -0.137696 0)
(0.895998 -0.146498 0)
(0.91465 -0.15517 0)
(0.932045 -0.163541 0)
(0.947785 -0.171436 0)
(0.961969 -0.178674 0)
(0.974156 -0.185083 0)
(0.984654 -0.190514 0)
(0.992971 -0.194824 0)
(0.999687 -0.197932 0)
(1.00422 -0.199739 0)
(1.00745 -0.200255 0)
(1.00866 -0.199436 0)
(1.00905 -0.197387 0)
(1.00765 -0.194099 0)
(1.00603 -0.189762 0)
(1.00286 -0.184382 0)
(1.00005 -0.178231 0)
(0.99588 -0.171295 0)
(0.992576 -0.1639 0)
(0.988006 -0.155983 0)
(0.984716 -0.147909 0)
(0.980132 -0.139545 0)
(0.977152 -0.131287 0)
(0.972758 -0.122924 0)
(0.970221 -0.114885 0)
(0.966085 -0.106878 0)
(0.964019 -0.0993705 0)
(0.960127 -0.0919902 0)
(0.958514 -0.0852509 0)
(0.954819 -0.0786983 0)
(0.953622 -0.0728968 0)
(0.950057 -0.0673104 0)
(0.949234 -0.0625612 0)
(0.94572 -0.0580307 0)
(0.945222 -0.0544071 0)
(0.941667 -0.0509898 0)
(0.941433 -0.0485403 0)
(0.937726 -0.0462763 0)
(0.937675 -0.0450382 0)
(0.933683 -0.0439607 0)
(0.0699899 0.00704694 0)
(0.0899806 0.00649943 0)
(0.153724 0.00600797 0)
(0.198726 0.00279289 0)
(0.237642 -0.00154127 0)
(0.273051 -0.00570074 0)
(0.305761 -0.00930053 0)
(0.335641 -0.0123588 0)
(0.363444 -0.0149863 0)
(0.389449 -0.0172621 0)
(0.414 -0.0192653 0)
(0.437331 -0.0210512 0)
(0.459522 -0.0226585 0)
(0.480687 -0.0241215 0)
(0.500927 -0.0254661 0)
(0.520335 -0.0267149 0)
(0.53898 -0.0278872 0)
(0.55693 -0.029008 0)
(0.574242 -0.0301012 0)
(0.590972 -0.0311872 0)
(0.607173 -0.0322868 0)
(0.622906 -0.033422 0)
(0.638231 -0.0346135 0)
(0.653207 -0.0358838 0)
(0.667889 -0.0372543 0)
(0.682331 -0.0387454 0)
(0.696583 -0.0403763 0)
(0.710698 -0.0421671 0)
(0.724723 -0.0441377 0)
(0.738707 -0.0463088 0)
(0.752689 -0.0486993 0)
(0.766712 -0.0513295 0)
(0.780797 -0.0542178 0)
(0.794977 -0.0573828 0)
(0.809259 -0.06084 0)
(0.823662 -0.0646056 0)
(0.838176 -0.0686919 0)
(0.852802 -0.0731139 0)
(0.867509 -0.0778812 0)
(0.882276 -0.0830063 0)
(0.897042 -0.0884936 0)
(0.911756 -0.0943502 0)
(0.926323 -0.100571 0)
(0.940652 -0.107153 0)
(0.954612 -0.114071 0)
(0.968078 -0.121297 0)
(0.980887 -0.128774 0)
(0.992886 -0.136438 0)
(1.0039 -0.144188 0)
(1.01375 -0.151923 0)
(1.0223 -0.159504 0)
(1.02939 -0.166796 0)
(1.03493 -0.173637 0)
(1.03882 -0.179887 0)
(1.04107 -0.185391 0)
(1.04162 -0.190029 0)
(1.04066 -0.193681 0)
(1.03813 -0.196273 0)
(1.03442 -0.19774 0)
(1.0294 -0.198059 0)
(1.02369 -0.197233 0)
(1.017 -0.195286 0)
(1.01016 -0.192287 0)
(1.00261 -0.18829 0)
(0.995453 -0.18343 0)
(0.987691 -0.177762 0)
(0.980768 -0.171474 0)
(0.973193 -0.16459 0)
(0.966829 -0.15734 0)
(0.959607 -0.149689 0)
(0.953916 -0.141915 0)
(0.947045 -0.13391 0)
(0.94202 -0.126005 0)
(0.935419 -0.118006 0)
(0.931007 -0.110308 0)
(0.924572 -0.102618 0)
(0.920727 -0.09541 0)
(0.914368 -0.0882784 0)
(0.911076 -0.0817897 0)
(0.904724 -0.0754131 0)
(0.901999 -0.0698205 0)
(0.895587 -0.064342 0)
(0.893452 -0.0597692 0)
(0.886894 -0.0552792 0)
(0.885361 -0.0518019 0)
(0.87853 -0.04835 0)
(0.877585 -0.0460121 0)
(0.870306 -0.0436249 0)
(0.869902 -0.0424515 0)
(0.861958 -0.0411402 0)
(0.773843 -0.00926566 0)
(0.775458 -0.0207265 0)
(0.776355 -0.0269788 0)
(0.778103 -0.030714 0)
(0.781835 -0.0334045 0)
(0.787318 -0.0356522 0)
(0.794279 -0.0375841 0)
(0.802081 -0.0391703 0)
(0.810508 -0.0404258 0)
(0.819344 -0.0413919 0)
(0.828408 -0.0421441 0)
(0.837571 -0.0427565 0)
(0.846736 -0.0432731 0)
(0.85583 -0.043719 0)
(0.8648 -0.0441123 0)
(0.873607 -0.0444695 0)
(0.882221 -0.044808 0)
(0.890622 -0.045147 0)
(0.8988 -0.0455072 0)
(0.906752 -0.0459088 0)
(0.914483 -0.0463731 0)
(0.922006 -0.0469216 0)
(0.929336 -0.0475779 0)
(0.936495 -0.0483652 0)
(0.943502 -0.0493056 0)
(0.950379 -0.0504188 0)
(0.957148 -0.0517234 0)
(0.963826 -0.0532361 0)
(0.970435 -0.0549733 0)
(0.976989 -0.0569501 0)
(0.983503 -0.0591811 0)
(0.98998 -0.0616798 0)
(0.996424 -0.0644592 0)
(1.00283 -0.0675301 0)
(1.0092 -0.0709019 0)
(1.0155 -0.0745822 0)
(1.02172 -0.0785771 0)
(1.02784 -0.0828908 0)
(1.0338 -0.0875257 0)
(1.03956 -0.092482 0)
(1.04507 -0.097756 0)
(1.05026 -0.10334 0)
(1.05504 -0.109218 0)
(1.05935 -0.115368 0)
(1.06307 -0.121752 0)
(1.06611 -0.128327 0)
(1.06838 -0.13503 0)
(1.06977 -0.14179 0)
(1.0702 -0.148516 0)
(1.0696 -0.15511 0)
(1.0679 -0.161458 0)
(1.06509 -0.167446 0)
(1.06117 -0.17295 0)
(1.05619 -0.177863 0)
(1.05022 -0.182072 0)
(1.04335 -0.185494 0)
(1.03573 -0.18804 0)
(1.0275 -0.189668 0)
(1.01885 -0.190329 0)
(1.00987 -0.190027 0)
(1.00081 -0.188753 0)
(0.991616 -0.186552 0)
(0.982601 -0.183452 0)
(0.973504 -0.179527 0)
(0.964747 -0.174838 0)
(0.955788 -0.169464 0)
(0.94729 -0.163488 0)
(0.938354 -0.156983 0)
(0.930029 -0.150061 0)
(0.920955 -0.142768 0)
(0.912727 -0.135256 0)
(0.903395 -0.127529 0)
(0.895271 -0.119789 0)
(0.885649 -0.111981 0)
(0.87774 -0.104374 0)
(0.867868 -0.0968189 0)
(0.860357 -0.0896658 0)
(0.850307 -0.0826421 0)
(0.843413 -0.0762009 0)
(0.833237 -0.0699186 0)
(0.82718 -0.0643844 0)
(0.816876 -0.058988 0)
(0.811849 -0.0544912 0)
(0.801316 -0.050057 0)
(0.797467 -0.046666 0)
(0.786486 -0.0432133 0)
(0.783917 -0.0409556 0)
(0.772145 -0.0384711 0)
(0.770929 -0.0373496 0)
(0.757914 -0.0357972 0)
(1.05726 0.00816877 0)
(1.06038 -0.000257503 0)
(1.06113 -0.00745158 0)
(1.06041 -0.0131468 0)
(1.05957 -0.0178208 0)
(1.0593 -0.0218826 0)
(1.05976 -0.025507 0)
(1.06077 -0.0287057 0)
(1.06212 -0.0314752 0)
(1.06367 -0.0338367 0)
(1.06533 -0.0358347 0)
(1.06704 -0.0375236 0)
(1.06877 -0.0389556 0)
(1.07052 -0.0401761 0)
(1.07225 -0.0412247 0)
(1.07395 -0.0421365 0)
(1.07559 -0.0429449 0)
(1.07716 -0.0436822 0)
(1.07865 -0.0443806 0)
(1.08005 -0.0450712 0)
(1.08136 -0.0457851 0)
(1.08257 -0.0465525 0)
(1.08369 -0.0474033 0)
(1.08473 -0.0483656 0)
(1.08568 -0.0494662 0)
(1.08656 -0.0507284 0)
(1.08736 -0.0521742 0)
(1.08809 -0.0538222 0)
(1.08875 -0.05569 0)
(1.08935 -0.0577923 0)
(1.08987 -0.0601431 0)
(1.09031 -0.0627524 0)
(1.09067 -0.0656293 0)
(1.09093 -0.0687799 0)
(1.09108 -0.0722096 0)
(1.09109 -0.0759211 0)
(1.09095 -0.0799162 0)
(1.09063 -0.0841939 0)
(1.09011 -0.0887515 0)
(1.08934 -0.0935827 0)
(1.0883 -0.0986781 0)
(1.08693 -0.104022 0)
(1.08521 -0.109595 0)
(1.08308 -0.115366 0)
(1.0805 -0.121297 0)
(1.07744 -0.127342 0)
(1.07386 -0.133443 0)
(1.06971 -0.139531 0)
(1.065 -0.145529 0)
(1.0597 -0.151351 0)
(1.05383 -0.156906 0)
(1.0474 -0.162102 0)
(1.04045 -0.166846 0)
(1.03301 -0.171051 0)
(1.02515 -0.174633 0)
(1.01691 -0.177519 0)
(1.00833 -0.179637 0)
(0.999469 -0.180935 0)
(0.990319 -0.181364 0)
(0.9809 -0.180907 0)
(0.97118 -0.179546 0)
(0.961128 -0.177306 0)
(0.950699 -0.174202 0)
(0.939809 -0.170292 0)
(0.928464 -0.165599 0)
(0.916519 -0.160195 0)
(0.904113 -0.154119 0)
(0.891005 -0.147479 0)
(0.877566 -0.140344 0)
(0.863382 -0.132842 0)
(0.849151 -0.125058 0)
(0.834148 -0.117112 0)
(0.81953 -0.109105 0)
(0.804077 -0.101141 0)
(0.789577 -0.0933463 0)
(0.774072 -0.0857733 0)
(0.760219 -0.0785653 0)
(0.744999 -0.0716859 0)
(0.732267 -0.065319 0)
(0.71752 -0.0593143 0)
(0.706287 -0.05394 0)
(0.692018 -0.0488969 0)
(0.682579 -0.0445924 0)
(0.668588 -0.0405276 0)
(0.661181 -0.0373218 0)
(0.647032 -0.034203 0)
(0.641871 -0.0320928 0)
(0.626876 -0.0298483 0)
(0.624237 -0.0288103 0)
(0.607452 -0.027346 0)
(1.08193 -0.00336982 0)
(1.08791 -0.0109839 0)
(1.09222 -0.0183591 0)
(1.09489 -0.024501 0)
(1.0964 -0.0292672 0)
(1.09738 -0.0329821 0)
(1.09822 -0.0360044 0)
(1.09907 -0.0385606 0)
(1.09993 -0.0407446 0)
(1.10075 -0.042583 0)
(1.10148 -0.04409 0)
(1.10212 -0.0452917 0)
(1.10266 -0.0462284 0)
(1.10311 -0.0469475 0)
(1.10349 -0.047496 0)
(1.10378 -0.0479176 0)
(1.104 -0.0482524 0)
(1.10412 -0.0485368 0)
(1.10415 -0.0488057 0)
(1.10408 -0.0490918 0)
(1.10391 -0.0494273 0)
(1.10364 -0.0498421 0)
(1.10327 -0.0503654 0)
(1.10279 -0.0510238 0)
(1.10221 -0.0518421 0)
(1.10152 -0.0528423 0)
(1.10074 -0.0540441 0)
(1.09986 -0.0554642 0)
(1.09888 -0.0571172 0)
(1.09779 -0.0590148 0)
(1.0966 -0.061167 0)
(1.0953 -0.0635803 0)
(1.09388 -0.0662604 0)
(1.09233 -0.06921 0)
(1.09065 -0.0724316 0)
(1.08883 -0.0759247 0)
(1.08685 -0.0796885 0)
(1.0847 -0.0837188 0)