/*--------------------------------*- C++ -*----------------------------------*\
| =========                 |                                                 |
| \\      /  F ield         | OpenFOAM: The Open Source CFD Toolbox           |
|  \\    /   O peration     | Version:  2306                                  |
|   \\  /    A nd           | Website:  www.openfoam.com                      |
|    \\/     M anipulation  |                                                 |
\*---------------------------------------------------------------------------*/
FoamFile
{
    version     2.0;
    format      ascii;
    arch        "LSB;label=32;scalar=64";
    class       volScalarField;
    location    "3.99";
    object      p;
}
// * * * * * * * * * * * * * * * * * * * * * * * * * * * * * * * * * * * * * //

dimensions      [0 2 -2 0 0 0 0];

internalField   nonuniform List<scalar> 
1900
(
0.0570434
0.0328198
0.0124254
-0.00291895
-0.0139439
-0.0245072
-0.034959
-0.0471385
-0.0597123
-0.0737929
0.0277827
0.0195836
0.00826555
-0.00329035
-0.0143197
-0.024514
-0.034956
-0.0454803
-0.0569902
-0.0680552
0.0186916
0.0142004
0.00668354
-0.00268661
-0.0127729
-0.0227549
-0.0325374
-0.0420935
-0.0515245
-0.0606157
0.0129923
0.00991876
0.00426832
-0.00338099
-0.0122339
-0.0214756
-0.0306685
-0.0395845
-0.0481799
-0.0563407
0.0107705
0.00823508
0.00349636
-0.00315172
-0.0111304
-0.0197337
-0.028408
-0.0368305
-0.0448509
-0.0523796
0.011407
0.00892643
0.00431616
-0.00214818
-0.00988562
-0.0181877
-0.0264953
-0.0344909
-0.0420502
-0.0491441
0.0148646
0.0119191
0.00663891
-0.000442709
-0.00850074
-0.0167845
-0.0248283
-0.0324543
-0.0396543
-0.0464629
0.0215655
0.0172706
0.0103743
0.00190765
-0.00690913
-0.0153292
-0.0231566
-0.030485
-0.0374634
-0.0441537
0.0317079
0.0236096
0.0131754
0.00271736
-0.00658547
-0.0146916
-0.0220531
-0.0290926
-0.0359732
-0.0426546
0.0605588
0.0378874
0.0181827
0.00412336
-0.00552928
-0.0132181
-0.0204391
-0.0276469
-0.0347914
-0.0416667
-0.0970284
-0.0970618
-0.0971066
-0.0971607
-0.0972209
-0.0972871
-0.0973586
-0.0974345
-0.0975134
-0.0975938
-0.0976741
-0.0977527
-0.0978278
-0.0978979
-0.0979613
-0.0980166
-0.0980622
-0.0980969
-0.0981195
-0.0981289
-0.0981243
-0.0981048
-0.0980701
-0.0980195
-0.0979528
-0.0978698
-0.0977705
-0.0976546
-0.0975224
-0.0973738
-0.0972091
-0.0970288
-0.0968332
-0.0966231
-0.0963988
-0.0961603
-0.0959056
-0.0956303
-0.0953258
-0.0949776
-0.0945645
-0.0940579
-0.0934229
-0.092619
-0.0916027
-0.0903265
-0.088738
-0.0867759
-0.0843691
-0.0814391
-0.0779023
-0.0736751
-0.0686905
-0.0629109
-0.0563312
-0.0489969
-0.0409816
-0.0323902
-0.0233618
-0.0140655
-0.00468697
0.00458318
0.0135562
0.0220539
0.0299159
0.0370092
0.0432268
0.0485014
0.0527898
0.0560861
0.0584018
0.0597823
0.0602794
0.0599719
0.0589319
0.0572518
0.0550084
0.0522944
0.0491765
0.0457371
0.0420247
0.0381078
0.0340122
0.0297932
0.025451
0.0210335
0.0165096
0.0119351
0.00723086
0.0024943
-0.0970239
-0.0970556
-0.0970826
-0.0971241
-0.0971753
-0.0972349
-0.0973012
-0.0973727
-0.0974477
-0.0975247
-0.0976021
-0.0976782
-0.0977514
-0.0978199
-0.097882
-0.0979363
-0.0979811
-0.0980152
-0.0980372
-0.0980461
-0.0980408
-0.0980207
-0.0979849
-0.0979331
-0.0978647
-0.0977795
-0.0976772
-0.0975578
-0.0974211
-0.0972671
-0.0970956
-0.0969066
-0.0966999
-0.0964753
-0.0962326
-0.0959707
-0.0956878
-0.0953798
-0.0950398
-0.0946571
-0.0942159
-0.0936955
-0.0930691
-0.092304
-0.0913607
-0.0901927
-0.0887441
-0.0869463
-0.0847137
-0.0819492
-0.0785518
-0.0744326
-0.0695385
-0.0638648
-0.0573952
-0.0501412
-0.0421696
-0.0335963
-0.0245656
-0.0152501
-0.00584063
0.0034691
0.0124812
0.021016
0.0289144
0.03604
0.0422782
0.0475736
0.0518796
0.0551929
0.0575226
0.0589178
0.0594282
0.0591375
0.0581168
0.0564641
0.0542496
0.0515718
0.0484892
0.0450936
0.041422
0.0375555
0.0335048
0.0293422
0.0250491
0.0206937
0.0162239
0.0117102
0.00707278
0.00241991
-0.0969063
-0.0969875
-0.0970331
-0.0970866
-0.0971429
-0.0972044
-0.0972724
-0.0973456
-0.0974228
-0.0975025
-0.0975828
-0.0976621
-0.0977385
-0.0978103
-0.0978757
-0.0979332
-0.097981
-0.0980178
-0.0980422
-0.098053
-0.0980492
-0.0980299
-0.0979945
-0.0979425
-0.0978735
-0.0977873
-0.0976839
-0.0975632
-0.0974254
-0.0972705
-0.0970985
-0.0969091
-0.0967017
-0.0964759
-0.0962306
-0.0959644
-0.0956748
-0.0953583
-0.09501
-0.094623
-0.0941886
-0.093694
-0.0931215
-0.092446
-0.0916303
-0.0906223
-0.0893549
-0.0877468
-0.0856965
-0.0830982
-0.0798641
-0.0758976
-0.0711129
-0.0654652
-0.0589736
-0.0516855
-0.0436802
-0.0350764
-0.0260138
-0.0166672
-0.00725616
0.00204364
0.0110402
0.0195586
0.0274314
0.0345305
0.0407423
0.0460083
0.0502833
0.0535689
0.0558746
0.0572546
0.0577579
0.057473
0.0564672
0.0548433
0.0526679
0.0500441
0.0470256
0.0437082
0.0401243
0.0363582
0.0324173
0.028375
0.0242121
0.0199945
0.015676
0.0113213
0.00686327
0.00237766
-0.0969886
-0.0970622
-0.0970664
-0.0970922
-0.0971379
-0.0972
-0.0972734
-0.0973541
-0.0974395
-0.0975277
-0.0976163
-0.0977035
-0.0977872
-0.0978655
-0.0979367
-0.0979991
-0.098051
-0.0980909
-0.0981175
-0.0981297
-0.0981263
-0.0981066
-0.0980701
-0.0980162
-0.0979446
-0.0978552
-0.0977481
-0.0976236
-0.0974818
-0.097323
-0.0971471
-0.0969538
-0.0967424
-0.0965114
-0.0962596
-0.0959858
-0.095689
-0.0953676
-0.0950198
-0.0946419
-0.0942281
-0.0937704
-0.0932579
-0.0926678
-0.0919609
-0.0910758
-0.0899331
-0.0884584
-0.0865381
-0.0840508
-0.0808839
-0.0769644
-0.072215
-0.0666115
-0.0601598
-0.0529109
-0.0449501
-0.0364024
-0.0274166
-0.0181728
-0.00887374
0.000292128
0.00913444
0.017483
0.0251763
0.0320938
0.0381306
0.0432308
0.0473547
0.0505089
0.0527078
0.0540091
0.0544648
0.0541642
0.0531754
0.0516001
0.0495048
0.0469897
0.0441084
0.0409513
0.0375521
0.0339883
0.0302707
0.0264646
0.0225578
0.018606
0.0145752
0.0105157
0.00637306
0.00219745
-0.0966618
-0.0968672
-0.096958
-0.0970621
-0.0971608
-0.0972541
-0.0973467
-0.097442
-0.0975395
-0.0976379
-0.0977351
-0.0978295
-0.0979191
-0.098002
-0.0980765
-0.0981411
-0.0981941
-0.098234
-0.0982594
-0.0982692
-0.0982625
-0.0982385
-0.0981969
-0.0981374
-0.0980599
-0.0979643
-0.0978512
-0.097721
-0.0975743
-0.0974114
-0.0972325
-0.0970369
-0.0968236
-0.0965905
-0.0963362
-0.0960601
-0.0957618
-0.095441
-0.0950976
-0.0947297
-0.0943327
-0.093899
-0.0934227
-0.0928794
-0.0922267
-0.0913941
-0.090298
-0.0888372
-0.086921
-0.0844368
-0.0812764
-0.0773599
-0.0726256
-0.0670529
-0.060656
-0.0534924
-0.0456539
-0.037269
-0.0284923
-0.0195006
-0.0104869
-0.0016398
0.00685769
0.0148435
0.0221698
0.0287244
0.0344162
0.0391966
0.0430365
0.0459482
0.0479546
0.0491154
0.0494875
0.0491578
0.0481965
0.0466992
0.0447336
0.0423911
0.0397264
0.0368194
0.0337062
0.0304529
0.0270757
0.023627
0.0201041
0.0165486
0.0129401
0.00931327
0.00563275
0.00193361
-0.0974942
-0.0975166
-0.0974152
-0.0973701
-0.0973806
-0.0974384
-0.0975264
-0.0976273
-0.0977305
-0.0978324
-0.0979311
-0.0980249
-0.0981121
-0.0981912
-0.0982608
-0.0983195
-0.0983659
-0.0983987
-0.0984165
-0.0984183
-0.0984033
-0.0983709
-0.0983212
-0.0982539
-0.0981692
-0.0980669
-0.0979476
-0.0978123
-0.0976615
-0.0974956
-0.0973146
-0.0971179
-0.0969038
-0.0966697
-0.0964151
-0.0961413
-0.095847
-0.0955313
-0.0951938
-0.0948332
-0.0944442
-0.0940142
-0.0935232
-0.0929531
-0.0922582
-0.0913723
-0.0902112
-0.0886829
-0.0866874
-0.0841237
-0.0808947
-0.0769293
-0.0721801
-0.0666361
-0.0603207
-0.0532988
-0.0456688
-0.0375632
-0.0291372
-0.0205643
-0.0120258
-0.00369985
0.00424574
0.0116626
0.0184219
0.024425
0.0295992
0.033907
0.0373346
0.0399011
0.0416402
0.0426119
0.0428786
0.0425215
0.0416124
0.0402366
0.0384616
0.0363659
0.0340042
0.0314424
0.0287186
0.0258844
0.0229604
0.0199853
0.0169639
0.0139241
0.0108573
0.00778487
0.00468866
0.0015902
-0.0961655
-0.0968131
-0.097016
-0.0972727
-0.0974884
-0.0976517
-0.0977741
-0.0978752
-0.0979681
-0.0980564
-0.0981404
-0.0982191
-0.0982912
-0.0983555
-0.0984107
-0.0984557
-0.0984895
-0.0985108
-0.098518
-0.0985099
-0.0984858
-0.0984453
-0.098388
-0.098314
-0.098223
-0.0981147
-0.0979907
-0.0978523
-0.0976995
-0.0975324
-0.0973507
-0.097154
-0.0969407
-0.0967075
-0.0964497
-0.0961656
-0.0958578
-0.0955252
-0.0951648
-0.094772
-0.094339
-0.0938531
-0.0932937
-0.0926315
-0.0918194
-0.0907934
-0.0894737
-0.0877728
-0.0855995
-0.0828672
-0.0794979
-0.0754352
-0.0706477
-0.0651376
-0.0589403
-0.0521294
-0.0448093
-0.0371136
-0.0291941
-0.0212166
-0.0133474
-0.00574679
0.0014411
0.00809017
0.0140967
0.019382
0.0238955
0.0276147
0.0305423
0.0327045
0.0341439
0.0349187
0.0350932
0.0347399
0.0339285
0.0327313
0.0312123
0.0294354
0.0274522
0.0253141
0.0230583
0.0207224
0.0183295
0.015905
0.0134597
0.0110091
0.00855425
0.00610483
0.0036564
0.00121972
-0.100881
-0.0995006
-0.0988724
-0.0984391
-0.0982127
-0.0981235
-0.0981117
-0.0981361
-0.0981748
-0.0982203
-0.0982695
-0.0983192
-0.0983673
-0.098412
-0.0984515
-0.0984837
-0.0985074
-0.0985193
-0.0985176
-0.0985019
-0.0984719
-0.0984271
-0.0983675
-0.0982919
-0.0982
-0.0980904
-0.0979614
-0.0978146
-0.097652
-0.0974732
-0.0972765
-0.09706
-0.0968213
-0.0965572
-0.0962643
-0.0959404
-0.0955833
-0.0951899
-0.0947547
-0.0942704
-0.0937256
-0.093104
-0.0923812
-0.0915237
-0.0904853
-0.0892073
-0.0876192
-0.0856451
-0.0832087
-0.0802416
-0.0766882
-0.0725128
-0.0677026
-0.0622752
-0.056278
-0.0497903
-0.042917
-0.0357875
-0.0285435
-0.0213358
-0.0143101
-0.00760468
-0.00133515
0.00440165
0.00953186
0.0140013
0.0177829
0.0208696
0.0232777
0.0250375
0.0261952
0.0268034
0.0269234
0.0266162
0.0259459
0.0249711
0.0237498
0.0223311
0.0207623
0.0190803
0.0173207
0.0155081
0.0136671
0.0118114
0.00995644
0.00810736
0.00627293
0.00445258
0.00265104
0.000865683
-0.0950354
-0.0961253
-0.0969636
-0.0975759
-0.0978928
-0.0980113
-0.0980456
-0.0980586
-0.0980742
-0.0981042
-0.0981435
-0.0981844
-0.0982251
-0.0982644
-0.0983003
-0.0983309
-0.0983553
-0.0983732
-0.0983789
-0.0983675
-0.0983378
-0.0982896
-0.0982233
-0.0981391
-0.0980351
-0.0979086
-0.0977584
-0.0975844
-0.0973866
-0.097164
-0.0969145
-0.0966354
-0.0963234
-0.0959744
-0.095584
-0.0951477
-0.0946608
-0.0941178
-0.0935114
-0.0928316
-0.0920643
-0.091191
-0.0901873
-0.0890214
-0.0876523
-0.0860308
-0.0841008
-0.0818038
-0.0790831
-0.0758895
-0.0721854
-0.0679539
-0.0632019
-0.0579628
-0.0522937
-0.046277
-0.0400128
-0.0336184
-0.0272167
-0.0209334
-0.0148847
-0.00917822
-0.00390178
0.000873208
0.00510131
0.00875199
0.0118182
0.0143036
0.0162324
0.017634
0.0185535
0.0190346
0.0191326
0.0188962
0.0183829
0.0176385
0.0167154
0.0156494
0.0144835
0.0132418
0.0119578
0.0106444
0.00932741
0.00800959
0.0067112
0.00542679
0.00417358
0.00294
0.00174176
0.000561033
-0.117726
-0.102798
-0.10087
-0.0993938
-0.0984789
-0.0980503
-0.0978757
-0.0978132
-0.0977932
-0.0977958
-0.0978333
-0.0978948
-0.0979596
-0.0980198
-0.0980739
-0.0981204
-0.0981566
-0.0981789
-0.0981819
-0.0981608
-0.0981131
-0.098039
-0.0979393
-0.0978129
-0.097657
-0.0974682
-0.0972441
-0.0969828
-0.0966826
-0.0963418
-0.0959581
-0.0955289
-0.0950507
-0.0945192
-0.0939297
-0.0932772
-0.0925562
-0.0917604
-0.090882
-0.0899108
-0.0888332
-0.087631
-0.0862796
-0.0847497
-0.0830083
-0.0810186
-0.0787414
-0.0761379
-0.0731729
-0.0698197
-0.0660637
-0.061907
-0.0573702
-0.052493
-0.0473322
-0.0419615
-0.0364665
-0.030944
-0.0254923
-0.0202092
-0.015182
-0.0104889
-0.00619147
-0.00233921
0.00104369
0.00394353
0.00636447
0.00831508
0.00982154
0.0109108
0.0116246
0.0119992
0.0120832
0.0119154
0.011547
0.0110134
0.0103619
0.00961743
0.00881916
0.00797964
0.00713053
0.00627286
0.00543379
0.00460433
0.00381043
0.00303439
0.00230374
0.00159247
0.000931122
0.000281884
-0.0852643
-0.0917282
-0.0942364
-0.0950775
-0.0955226
-0.0959218
-0.0962908
-0.0966004
-0.0968681
-0.0971012
-0.0973013
-0.0974709
-0.097613
-0.0977311
-0.0978277
-0.0979022
-0.0979513
-0.0979706
-0.0979547
-0.0978994
-0.0978017
-0.0976603
-0.0974744
-0.0972429
-0.096964
-0.0966356
-0.0962557
-0.0958227
-0.0953351
-0.0947913
-0.0941882
-0.093522
-0.0927892
-0.0919862
-0.0911093
-0.0901544
-0.0891167
-0.0879902
-0.0867682
-0.0854418
-0.0839996
-0.0824275
-0.0807079
-0.078821
-0.0767447
-0.0744561
-0.0719316
-0.0691499
-0.0660939
-0.0627536
-0.0591286
-0.05523
-0.0510817
-0.0467206
-0.0421949
-0.0375633
-0.032894
-0.0282625
-0.0237451
-0.0194169
-0.0153443
-0.0115844
-0.00817736
-0.00515116
-0.00251667
-0.000277664
0.00157511
0.00305334
0.00418314
0.00499081
0.00551555
0.00578964
0.00585667
0.00574833
0.00550884
0.00516512
0.00475798
0.00430437
0.00383848
0.00336399
0.00290887
0.00246367
0.00205453
0.00166101
0.00131361
0.000981942
0.000704377
0.000436857
0.000227778
1.52136e-05
-0.0793043
-0.0870832
-0.0910669
-0.0924925
-0.0929266
-0.0932622
-0.0937577
-0.0943702
-0.094986
-0.0955304
-0.0959808
-0.0963461
-0.0966444
-0.0968902
-0.0970903
-0.0972447
-0.0973492
-0.0973975
-0.0973835
-0.0973023
-0.0971503
-0.0969259
-0.0966283
-0.0962577
-0.095814
-0.0952977
-0.0947086
-0.0940469
-0.0933126
-0.0925052
-0.0916238
-0.0906668
-0.0896328
-0.0885199
-0.0873261
-0.0860489
-0.084685
-0.0832307
-0.0816812
-0.0800307
-0.0782721
-0.0763968
-0.074395
-0.0722552
-0.069965
-0.0675111
-0.0648808
-0.0620636
-0.059053
-0.0558477
-0.0524537
-0.0488847
-0.0451645
-0.0413266
-0.0374141
-0.0334777
-0.0295716
-0.0257516
-0.0220741
-0.0185937
-0.0153587
-0.012408
-0.00976824
-0.00745622
-0.00547588
-0.00382104
-0.00247411
-0.00141648
-0.000621977
-6.40399e-05
0.000293305
0.000482677
0.000544036
0.000506193
0.000403588
0.000254713
8.84408e-05
-8.51989e-05
-0.00024072
-0.000379507
-0.000481034
-0.000560464
-0.000597529
-0.00061949
-0.000596724
-0.000567309
-0.000486328
-0.000412033
-0.000278807
-0.000174564
-0.0690868
-0.0762817
-0.0816254
-0.0851106
-0.0872485
-0.0886985
-0.0899092
-0.091059
-0.0921603
-0.0931675
-0.0940431
-0.0947773
-0.0953805
-0.0958698
-0.0962583
-0.0965524
-0.0967524
-0.0968553
-0.096857
-0.0967542
-0.0965452
-0.0962297
-0.095809
-0.0952853
-0.0946616
-0.093941
-0.0931265
-0.0922209
-0.0912269
-0.0901466
-0.0889817
-0.0877332
-0.0864016
-0.0849869
-0.0834886
-0.0819058
-0.080237
-0.0784805
-0.076634
-0.0746951
-0.0726605
-0.0705267
-0.06829
-0.0659462
-0.0634911
-0.0609208
-0.0582322
-0.0554231
-0.0524938
-0.0494474
-0.0462919
-0.0430407
-0.0397151
-0.0363451
-0.0329699
-0.0296351
-0.0263888
-0.023277
-0.02034
-0.0176103
-0.0151119
-0.0128642
-0.010884
-0.00918554
-0.00777117
-0.00662457
-0.00571255
-0.00500158
-0.00446289
-0.00407418
-0.00380907
-0.00363746
-0.00352281
-0.00343768
-0.00336005
-0.00328295
-0.0031964
-0.00309939
-0.00298004
-0.00284082
-0.00267034
-0.00248005
-0.00225686
-0.00202095
-0.0017509
-0.00148024
-0.00117079
-0.000879006
-0.000535975
-0.000244301
-0.0638524
-0.0704738
-0.0759454
-0.0801617
-0.0832463
-0.0855098
-0.0872937
-0.0888366
-0.0902466
-0.091541
-0.0927001
-0.0937031
-0.0945439
-0.0952279
-0.0957653
-0.0961639
-0.0964273
-0.0965553
-0.096546
-0.0963977
-0.0961099
-0.0956843
-0.0951239
-0.0944335
-0.0936184
-0.0926846
-0.0916378
-0.0904837
-0.0892279
-0.0878752
-0.0864297
-0.0848948
-0.0832727
-0.081565
-0.0797727
-0.0778964
-0.0759365
-0.0738934
-0.0717676
-0.0695596
-0.0672705
-0.0649016
-0.0624544
-0.0599316
-0.0573362
-0.0546724
-0.0519447
-0.0491583
-0.0463189
-0.0434333
-0.0405098
-0.0375596
-0.0345991
-0.0316523
-0.0287537
-0.0259472
-0.0232827
-0.0208045
-0.0185415
-0.0165
-0.0146684
-0.0130339
-0.0116012
-0.0103909
-0.00941459
-0.00865214
-0.00805204
-0.00755615
-0.00713044
-0.00676816
-0.00646816
-0.00621795
-0.00599082
-0.00576017
-0.00550736
-0.00522832
-0.00492581
-0.00461003
-0.00428528
-0.0039574
-0.00362229
-0.00328316
-0.00293201
-0.00257623
-0.00220414
-0.00183167
-0.00143693
-0.00105377
-0.000634192
-0.000258308
-0.0593336
-0.0656056
-0.0710679
-0.0756244
-0.0792815
-0.0821726
-0.0845079
-0.0864875
-0.0882442
-0.0898366
-0.0912723
-0.0925379
-0.0936198
-0.0945128
-0.0952191
-0.0957432
-0.0960888
-0.0962576
-0.0962495
-0.0960649
-0.0957057
-0.0951759
-0.0944814
-0.0936296
-0.0926285
-0.0914866
-0.0902126
-0.0888151
-0.0873029
-0.0856839
-0.0839649
-0.0821514
-0.0802478
-0.0782573
-0.0761823
-0.0740252
-0.0717881
-0.0694737
-0.0670854
-0.0646273
-0.0621046
-0.0595232
-0.0568902
-0.0542138
-0.0515038
-0.0487713
-0.0460286
-0.0432885
-0.0405629
-0.0378616
-0.0351929
-0.0325644
-0.0299847
-0.0274662
-0.0250296
-0.0227123
-0.0205672
-0.0186462
-0.0169765
-0.0155363
-0.0142673
-0.0131157
-0.0120733
-0.0111706
-0.010437
-0.00986799
-0.00940914
-0.00898367
-0.00854491
-0.00809417
-0.00765668
-0.00725111
-0.00687642
-0.00652123
-0.00617304
-0.00582046
-0.00545592
-0.00507975
-0.00469479
-0.00430593
-0.00391372
-0.00352053
-0.0031238
-0.00272617
-0.00232255
-0.0019181
-0.00150349
-0.00109218
-0.000660153
-0.000253898
-0.0557531
-0.0618223
-0.0672656
-0.0720051
-0.0760172
-0.0793559
-0.0821427
-0.0845234
-0.0866186
-0.0885005
-0.0901949
-0.0916995
-0.0930013
-0.0940888
-0.0949563
-0.0956025
-0.0960282
-0.0962344
-0.0962217
-0.0959922
-0.0955503
-0.0949038
-0.0940631
-0.0930393
-0.0918437
-0.0904876
-0.0889823
-0.0873396
-0.0855709
-0.083687
-0.0816975
-0.0796105
-0.0774327
-0.0751693
-0.0728245
-0.0704024
-0.0679072
-0.0653441
-0.0627195
-0.0600415
-0.0573199
-0.0545662
-0.0517931
-0.0490138
-0.0462423
-0.0434953
-0.0407924
-0.0381547
-0.0355988
-0.0331348
-0.0307667
-0.0284961
-0.0263231
-0.024246
-0.0222627
-0.02039
-0.0186732
-0.0171691
-0.0159191
-0.0148892
-0.0139922
-0.0131531
-0.0123495
-0.011598
-0.0109124
-0.0103207
-0.00982047
-0.00936753
-0.00892698
-0.0085015
-0.00808447
-0.00766583
-0.00724122
-0.00681074
-0.00637631
-0.0059435
-0.00551854
-0.00510468
-0.00470001
-0.00430315
-0.00391114
-0.00352111
-0.00312932
-0.00273481
-0.00233485
-0.0019302
-0.00151729
-0.00109999
-0.000671938
-0.000258485
-0.0528781
-0.0588443
-0.0642799
-0.0691191
-0.0733415
-0.0769797
-0.0801104
-0.0828326
-0.0852397
-0.0873982
-0.0893409
-0.0910732
-0.0925846
-0.0938602
-0.0948874
-0.0956584
-0.0961687
-0.0964165
-0.0964019
-0.0961274
-0.0955995
-0.0948303
-0.0938365
-0.0926351
-0.0912419
-0.0896717
-0.0879389
-0.0860584
-0.0840445
-0.0819113
-0.079671
-0.0773347
-0.0749113
-0.0724084
-0.0698325
-0.0671895
-0.0644861
-0.0617299
-0.0589303
-0.0560992
-0.0532516
-0.0504051
-0.0475788
-0.0447912
-0.042057
-0.0393915
-0.0368188
-0.0343635
-0.0320402
-0.0298515
-0.0277902
-0.0258481
-0.0240206
-0.0223031
-0.0206979
-0.0192018
-0.0178285
-0.0166105
-0.0155522
-0.014637
-0.0138342
-0.0131115
-0.0124574
-0.0118706
-0.0113562
-0.0108438
-0.0102848
-0.00968201
-0.00908488
-0.00852511
-0.00801585
-0.00755969
-0.00714052
-0.00673723
-0.00633667
-0.00593404
-0.00552907
-0.00512347
-0.00472099
-0.00432241
-0.00392635
-0.00353133
-0.00313554
-0.00273766
-0.00233568
-0.00192897
-0.00151582
-0.00109803
-0.000678102
-0.000255038
-0.0505162
-0.0564595
-0.0618999
-0.0667932
-0.0711396
-0.0749773
-0.0783667
-0.0813752
-0.0840668
-0.0864918
-0.0886795
-0.0906376
-0.0923571
-0.0938209
-0.0950111
-0.0959126
-0.0965149
-0.0968121
-0.096803
-0.0964909
-0.0958844
-0.0949984
-0.093856
-0.0924815
-0.0908976
-0.089126
-0.087187
-0.0850999
-0.0828828
-0.0805522
-0.0781226
-0.0756065
-0.0730143
-0.0703547
-0.0676357
-0.0648646
-0.0620494
-0.0591992
-0.0563252
-0.0534412
-0.0505647
-0.047717
-0.0449223
-0.042205
-0.0395821
-0.0370729
-0.0346984
-0.0324715
-0.0303909
-0.0284448
-0.0266113
-0.0248665
-0.0232033
-0.0216412
-0.0202164
-0.0189685
-0.0179186
-0.0170435
-0.0162382
-0.0153919
-0.0144727
-0.0135173
-0.0126168
-0.0118486
-0.0111997
-0.0106397
-0.0101197
-0.00960171
-0.00908548
-0.00858078
-0.00810251
-0.00765204
-0.00721924
-0.00679515
-0.00637503
-0.00595809
-0.00554543
-0.00513742
-0.00473325
-0.00433255
-0.00393425
-0.00353684
-0.00313878
-0.00273879
-0.00233553
-0.00192779
-0.00151448
-0.00109829
-0.000683614
-0.00025182
-0.0490081
-0.0549187
-0.0603267
-0.0652238
-0.0696343
-0.0735994
-0.077169
-0.0803923
-0.0833118
-0.0859619
-0.0883627
-0.0905183
-0.0924193
-0.0940475
-0.0953809
-0.0963986
-0.097084
-0.0974266
-0.0974233
-0.0970791
-0.0964065
-0.0954244
-0.0941545
-0.0926253
-0.0908691
-0.0889186
-0.086804
-0.0845519
-0.0821855
-0.0797237
-0.0771823
-0.0745736
-0.0719077
-0.0691924
-0.0664347
-0.0636411
-0.0608187
-0.0579755
-0.0551216
-0.0522701
-0.0494375
-0.0466446
-0.0439174
-0.0412861
-0.0387857
-0.0364486
-0.0342933
-0.0323201
-0.0305078
-0.0288175
-0.0272015
-0.0256029
-0.0239919
-0.0223759
-0.0208007
-0.0193346
-0.0180462
-0.0169422
-0.0159803
-0.0151057
-0.0142668
-0.0134585
-0.0126967
-0.0119996
-0.0113783
-0.010803
-0.0102443
-0.00969151
-0.00915015
-0.00863091
-0.00814063
-0.00767734
-0.00723537
-0.0068073
-0.00638726
-0.00597204
-0.00556049
-0.00515253
-0.004748
-0.00434632
-0.00394647
-0.0035472
-0.00314722
-0.0027454
-0.0023407
-0.00193202
-0.00151876
-0.00110335
-0.000688365
-0.000251373
-0.0481071
-0.0540366
-0.0594464
-0.0643632
-0.0688267
-0.0728802
-0.076568
-0.079934
-0.0830156
-0.0858354
-0.0884016
-0.0907102
-0.0927474
-0.0944934
-0.0959256
-0.0970226
-0.0977672
-0.0981489
-0.0981652
-0.0978229
-0.0971372
-0.0961313
-0.0948338
-0.0932767
-0.0914934
-0.0895168
-0.0873778
-0.0851045
-0.0827209
-0.080247
-0.0776989
-0.0750895
-0.0724288
-0.0697247
-0.0669838
-0.0642123
-0.0614162
-0.0586027
-0.0557802
-0.0529598
-0.0501555
-0.047385
-0.0446697
-0.0420349
-0.0395066
-0.0371088
-0.0348579
-0.032759
-0.0308047
-0.028981
-0.0272467
-0.0255592
-0.0239132
-0.0223181
-0.0208113
-0.0194409
-0.0182335
-0.0171852
-0.0162397
-0.015336
-0.0144485
-0.0135862
-0.0127799
-0.012055
-0.011406
-0.0108112
-0.0102449
-0.00969521
-0.00916312
-0.00865384
-0.00816986
-0.00770895
-0.00726555
-0.00683407
-0.00641069
-0.00599336
-0.00558111
-0.0051733
-0.00476921
-0.00436794
-0.00396831
-0.00356905
-0.00316888
-0.0027667
-0.00236161
-0.00195285
-0.00153989
-0.00112312
-0.000701835
-0.00025752
)
;

boundaryField
{
    fixedWalls
    {
        type            zeroGradient;
    }
    inflowWall
    {
        type            zeroGradient;
    }
    outflowWall
    {
        type            fixedValue;
        value           uniform 0;
    }
    frontAndBack
    {
        type            empty;
    }
}


// ************************************************************************* //
