/*--------------------------------*- C++ -*----------------------------------*\
| =========                 |                                                 |
| \\      /  F ield         | OpenFOAM: The Open Source CFD Toolbox           |
|  \\    /   O peration     | Version:  2306                                  |
|   \\  /    A nd           | Website:  www.openfoam.com                      |
|    \\/     M anipulation  |                                                 |
\*---------------------------------------------------------------------------*/
FoamFile
{
    version     2.0;
    format      ascii;
    arch        "LSB;label=32;scalar=64";
    class       volScalarField;
    location    "3.35";
    object      p;
}
// * * * * * * * * * * * * * * * * * * * * * * * * * * * * * * * * * * * * * //

dimensions      [0 2 -2 0 0 0 0];

internalField   nonuniform List<scalar> 
1900
(
0.0581871
0.0339594
0.0135608
-0.00179028
-0.012824
-0.0234015
-0.0338716
-0.0460776
-0.0586857
-0.0728136
0.0289269
0.0207265
0.00940456
-0.00215712
-0.0131951
-0.0234008
-0.0338588
-0.0444028
-0.0559365
-0.0670225
0.0198404
0.015348
0.00782837
-0.00154595
-0.0116378
-0.0216268
-0.0314175
-0.0409827
-0.0504245
-0.05953
0.014146
0.0110717
0.00541965
-0.00223212
-0.0110883
-0.0203341
-0.0295316
-0.0384527
-0.0470539
-0.0552186
0.01193
0.00939448
0.00465542
-0.00199305
-0.0099722
-0.0185759
-0.0272506
-0.0356728
-0.0436906
-0.0512139
0.0125725
0.0100924
0.00548296
-0.000980041
-0.00871554
-0.0170149
-0.0253184
-0.0333082
-0.0408591
-0.0479416
0.0160358
0.0130912
0.00781288
0.000734208
-0.00731958
-0.0155975
-0.0236334
-0.0312492
-0.0384359
-0.0452279
0.0227414
0.0184479
0.0115543
0.003092
-0.00571859
-0.0141302
-0.0219467
-0.029261
-0.0362219
-0.0428904
0.0328879
0.0247912
0.0143605
0.00390799
-0.00538701
-0.0134827
-0.0208309
-0.0278534
-0.0347129
-0.0413684
0.0617405
0.0390712
0.0193705
0.00531744
-0.00432653
-0.0120039
-0.01921
-0.0263991
-0.0335204
-0.0403677
-0.0961172
-0.096151
-0.0961946
-0.0962469
-0.0963052
-0.0963692
-0.0964385
-0.0965122
-0.0965888
-0.0966669
-0.096745
-0.0968216
-0.0968953
-0.0969646
-0.097028
-0.0970844
-0.0971325
-0.0971714
-0.0972
-0.0972176
-0.0972238
-0.0972179
-0.0971997
-0.0971691
-0.0971261
-0.0970708
-0.0970035
-0.0969251
-0.0968366
-0.0967397
-0.0966366
-0.0965305
-0.0964248
-0.0963226
-0.0962257
-0.0961322
-0.0960347
-0.0959175
-0.095755
-0.095512
-0.0951457
-0.0946089
-0.0938521
-0.0928223
-0.0914583
-0.0896853
-0.0874132
-0.0845392
-0.0809533
-0.076544
-0.0712334
-0.0649803
-0.057784
-0.0497223
-0.0408795
-0.0313896
-0.0214277
-0.0111992
-0.00092191
0.00918006
0.0188911
0.0280116
0.0363665
0.0438121
0.0502459
0.0556046
0.0598549
0.0630126
0.0651064
0.0661997
0.0663684
0.0657066
0.0643129
0.062293
0.0597455
0.0567696
0.05345
0.0498699
0.0460935
0.0421846
0.0381853
0.0341411
0.0300731
0.0260123
0.0219603
0.0179387
0.0139301
0.00995416
0.0059709
0.00201426
-0.0961132
-0.0961441
-0.0961704
-0.0962104
-0.09626
-0.0963178
-0.0963822
-0.0964516
-0.0965244
-0.0965991
-0.0966743
-0.0967485
-0.0968201
-0.0968876
-0.0969496
-0.0970047
-0.0970517
-0.0970894
-0.097117
-0.0971335
-0.0971383
-0.097131
-0.097111
-0.0970782
-0.0970324
-0.0969737
-0.0969023
-0.0968186
-0.0967232
-0.0966171
-0.0965014
-0.096378
-0.0962487
-0.0961153
-0.095979
-0.0958387
-0.0956895
-0.0955216
-0.095318
-0.095055
-0.094702
-0.094222
-0.09357
-0.0926908
-0.0915152
-0.0899541
-0.0878962
-0.085213
-0.0817756
-0.0774813
-0.0722656
-0.0661268
-0.0590556
-0.0510624
-0.0422504
-0.0327651
-0.0227866
-0.0125257
-0.00220517
0.00794844
0.0177081
0.0268732
0.0352778
0.042755
0.0492147
0.0545972
0.0588715
0.0620469
0.0641559
0.0652644
0.0654522
0.0648164
0.0634523
0.061467
0.0589563
0.0560222
0.0527459
0.0492139
0.0454856
0.0416294
0.0376808
0.0336921
0.0296751
0.0256704
0.0216677
0.0177016
0.0137399
0.00981851
0.00588527
0.00198971
-0.0959958
-0.0960771
-0.0961214
-0.0961734
-0.0962281
-0.0962879
-0.0963538
-0.0964249
-0.0964997
-0.0965768
-0.0966547
-0.0967317
-0.0968062
-0.0968765
-0.0969413
-0.0969991
-0.0970484
-0.0970883
-0.0971175
-0.0971352
-0.0971406
-0.0971334
-0.0971131
-0.0970796
-0.0970329
-0.0969731
-0.0969005
-0.0968157
-0.0967191
-0.0966114
-0.096493
-0.096365
-0.0962281
-0.0960833
-0.0959308
-0.0957701
-0.0955994
-0.0954154
-0.0952124
-0.0949801
-0.0946992
-0.0943425
-0.0938663
-0.093204
-0.0922682
-0.090948
-0.089113
-0.0866264
-0.0833683
-0.0792294
-0.0741164
-0.067984
-0.0608658
-0.0528259
-0.0439709
-0.0344478
-0.0244266
-0.0141365
-0.00381493
0.0063254
0.0160667
0.0252124
0.0335854
0.0410392
0.0474688
0.0528195
0.057063
0.0602118
0.0623006
0.0633992
0.0635858
0.0629613
0.0616201
0.0596722
0.0572105
0.0543395
0.0511364
0.0476903
0.0440558
0.0403043
0.036466
0.0325966
0.0287027
0.0248283
0.0209585
0.01713
0.0133075
0.0095257
0.00573111
0.00196372
-0.0960814
-0.0961536
-0.0961563
-0.0961802
-0.0962236
-0.0962837
-0.0963547
-0.0964328
-0.0965155
-0.0966007
-0.0966865
-0.096771
-0.0968524
-0.096929
-0.0969992
-0.0970615
-0.0971145
-0.097157
-0.0971878
-0.0972062
-0.0972116
-0.0972035
-0.0971817
-0.0971461
-0.0970967
-0.0970337
-0.0969573
-0.0968679
-0.0967658
-0.0966512
-0.0965242
-0.0963846
-0.0962322
-0.096068
-0.0958945
-0.0957147
-0.0955327
-0.0953515
-0.0951713
-0.0949865
-0.0947838
-0.0945396
-0.0942092
-0.0937102
-0.092938
-0.091774
-0.0900847
-0.0877191
-0.0845398
-0.0804503
-0.0753745
-0.0692906
-0.0622171
-0.0542232
-0.0454231
-0.0359708
-0.0260485
-0.0158772
-0.00569041
0.00429125
0.0138533
0.0228029
0.0309702
0.0382233
0.0444604
0.0496307
0.0537123
0.0567245
0.0587062
0.059731
0.059878
0.0592501
0.0579407
0.0560597
0.0536964
0.0509529
0.0479025
0.0446316
0.0411912
0.0376496
0.0340347
0.0303987
0.026748
0.0231225
0.0195092
0.0159393
0.0123822
0.00886392
0.00533692
0.00182734
-0.095755
-0.0959593
-0.0960483
-0.0961501
-0.0962464
-0.0963372
-0.0964271
-0.0965195
-0.0966141
-0.0967094
-0.0968037
-0.0968952
-0.0969822
-0.0970632
-0.0971364
-0.0972004
-0.097254
-0.0972957
-0.0973246
-0.0973399
-0.0973411
-0.097328
-0.0973007
-0.0972594
-0.0972041
-0.0971351
-0.097053
-0.0969582
-0.0968507
-0.0967304
-0.0965969
-0.0964496
-0.0962879
-0.0961122
-0.095927
-0.095738
-0.0955519
-0.0953757
-0.0952129
-0.0950589
-0.0948954
-0.0947034
-0.0944482
-0.0940103
-0.0932925
-0.0921622
-0.0904834
-0.0881233
-0.084952
-0.0808731
-0.075823
-0.0697847
-0.0627856
-0.0549028
-0.046256
-0.0370044
-0.0273358
-0.0174628
-0.00761141
0.00199978
0.0111644
0.0197011
0.0274527
0.0343011
0.0401581
0.0449814
0.0487589
0.0515181
0.0533049
0.0541958
0.0542716
0.0536339
0.0523743
0.0505978
0.0483897
0.0458451
0.0430329
0.0400317
0.0368896
0.0336669
0.0303907
0.0271053
0.0238187
0.0205627
0.0173289
0.0141397
0.0109724
0.00784294
0.00471692
0.00161033
-0.0965902
-0.0966107
-0.0965066
-0.0964586
-0.0964662
-0.0965212
-0.0966063
-0.0967044
-0.0968045
-0.0969034
-0.096999
-0.0970898
-0.0971743
-0.0972511
-0.0973189
-0.0973764
-0.0974227
-0.0974565
-0.0974768
-0.097483
-0.0974751
-0.0974532
-0.0974174
-0.0973683
-0.097306
-0.0972306
-0.0971431
-0.097044
-0.096933
-0.0968096
-0.0966731
-0.0965225
-0.0963566
-0.0961752
-0.0959883
-0.0958002
-0.0956166
-0.0954441
-0.0952854
-0.0951362
-0.0949735
-0.094758
-0.0944447
-0.0939473
-0.0931544
-0.0919402
-0.0901729
-0.0877261
-0.0844843
-0.080362
-0.0753097
-0.0693204
-0.0624318
-0.0547292
-0.0463392
-0.0374246
-0.0281743
-0.0187944
-0.00949717
-0.000487718
0.00804466
0.015936
0.0230492
0.0292837
0.0345715
0.0388841
0.042223
0.0446245
0.0461429
0.046856
0.0468459
0.0462083
0.0450315
0.0434107
0.0414257
0.0391599
0.0366769
0.0340433
0.0313035
0.0285067
0.0256788
0.0228539
0.0200421
0.0172653
0.0145204
0.0118204
0.00915159
0.00652123
0.00390802
0.00131972
-0.0952533
-0.0959039
-0.0961053
-0.0963602
-0.0965739
-0.0967353
-0.0968554
-0.0969538
-0.0970437
-0.0971288
-0.0972095
-0.0972849
-0.0973538
-0.0974153
-0.0974682
-0.0975115
-0.0975447
-0.0975663
-0.0975752
-0.0975709
-0.0975533
-0.0975227
-0.0974792
-0.0974231
-0.0973545
-0.0972729
-0.0971817
-0.0970803
-0.0969678
-0.0968435
-0.096707
-0.0965571
-0.096393
-0.096212
-0.0960138
-0.0958101
-0.0956065
-0.0954049
-0.0952029
-0.0949904
-0.0947437
-0.0944241
-0.0939752
-0.0933135
-0.0923331
-0.0909174
-0.0889464
-0.0863096
-0.0829126
-0.0786886
-0.0736046
-0.0676687
-0.0609317
-0.0534883
-0.045471
-0.0370432
-0.0283889
-0.0197037
-0.0111817
-0.00300511
0.00466476
0.0116908
0.0179636
0.0234065
0.0279755
0.0316596
0.0344756
0.0364669
0.0376934
0.0382302
0.0381567
0.0375588
0.0365177
0.0351151
0.0334225
0.031509
0.0294307
0.0272408
0.0249788
0.0226822
0.020375
0.018081
0.0158114
0.0135797
0.0113868
0.0092385
0.0071284
0.0050573
0.00301496
0.00100354
-0.0999745
-0.0985958
-0.0979662
-0.0975312
-0.0973029
-0.0972116
-0.0971973
-0.0972185
-0.0972537
-0.0972955
-0.0973406
-0.0973863
-0.0974306
-0.0974719
-0.0975085
-0.0975386
-0.0975612
-0.0975727
-0.0975725
-0.0975608
-0.0975382
-0.0975041
-0.0974582
-0.0974005
-0.0973308
-0.0972469
-0.0971464
-0.0970337
-0.0969086
-0.0967686
-0.0966115
-0.0964352
-0.096238
-0.0960187
-0.0957785
-0.0955207
-0.0952468
-0.0949548
-0.094637
-0.0942778
-0.0938499
-0.0933107
-0.0926011
-0.0916438
-0.0903463
-0.0886078
-0.0863278
-0.0834178
-0.0798091
-0.0754592
-0.0703565
-0.0645263
-0.058032
-0.0509741
-0.043484
-0.0357192
-0.0278509
-0.0200552
-0.012501
-0.00534327
0.00129141
0.00730036
0.0126076
0.0171641
0.0209506
0.0239724
0.026258
0.027853
0.0288165
0.0292156
0.0291223
0.0286093
0.0277483
0.0266061
0.0252445
0.0237179
0.0220743
0.0203539
0.0185911
0.0168125
0.0150402
0.013289
0.011571
0.00989196
0.00825704
0.00666574
0.00511837
0.00361007
0.00213844
0.000697692
-0.0941198
-0.0952185
-0.0960589
-0.0966712
-0.0969866
-0.0971023
-0.0971333
-0.0971422
-0.0971541
-0.0971803
-0.0972156
-0.0972536
-0.0972911
-0.0973271
-0.0973603
-0.0973889
-0.0974127
-0.0974309
-0.097436
-0.097425
-0.0973987
-0.0973589
-0.0973052
-0.0972352
-0.0971471
-0.0970389
-0.0969097
-0.0967594
-0.0965868
-0.0963895
-0.0961642
-0.0959081
-0.0956181
-0.0952918
-0.0949272
-0.0945228
-0.0940758
-0.0935803
-0.0930243
-0.0923883
-0.0916431
-0.0907491
-0.0896527
-0.0882886
-0.0865826
-0.0844566
-0.0818355
-0.0786547
-0.0748662
-0.0704494
-0.0654152
-0.0598068
-0.053698
-0.0471914
-0.0404113
-0.0334991
-0.0266013
-0.0198629
-0.0134166
-0.00738068
-0.00185096
0.00310068
0.00742964
0.0111122
0.014148
0.0165524
0.0183588
0.0196094
0.0203574
0.0206584
0.0205745
0.0201654
0.0194933
0.0186122
0.0175746
0.0164219
0.0151945
0.0139208
0.0126306
0.0113406
0.0100714
0.00882947
0.00762845
0.00646693
0.00535434
0.00428353
0.00326208
0.00227854
0.00134004
0.000431114
-0.116848
-0.101904
-0.0999714
-0.0984922
-0.0975746
-0.0971433
-0.0969659
-0.0968992
-0.0968727
-0.0968692
-0.0968997
-0.0969542
-0.0970149
-0.0970708
-0.0971193
-0.0971594
-0.0971893
-0.0972058
-0.0972033
-0.0971783
-0.0971303
-0.0970591
-0.0969631
-0.0968395
-0.0966851
-0.0964975
-0.096274
-0.0960123
-0.09571
-0.0953645
-0.0949733
-0.094533
-0.0940403
-0.093492
-0.0928848
-0.0922152
-0.0914783
-0.0906664
-0.0897668
-0.08876
-0.0876174
-0.0863005
-0.0847646
-0.0829598
-0.0808332
-0.0783319
-0.0754086
-0.0720269
-0.0681668
-0.06383
-0.0590423
-0.0538532
-0.0483334
-0.0425736
-0.0366791
-0.0307652
-0.0249482
-0.0193394
-0.0140367
-0.00912454
-0.00466925
-0.000717728
0.00270791
0.00559949
0.00796555
0.00982449
0.0112097
0.0121588
0.0127185
0.0129343
0.0128596
0.0125434
0.0120399
0.0113924
0.0106462
0.00983157
0.008982
0.00811515
0.00725566
0.00641065
0.00559887
0.00481884
0.00408622
0.0033923
0.00275174
0.00214921
0.00160079
0.0010857
0.000623363
0.000184723
-0.0843318
-0.0908191
-0.09333
-0.0941647
-0.0946007
-0.0949901
-0.0953492
-0.0956488
-0.0959066
-0.0961302
-0.0963202
-0.0964791
-0.0966104
-0.096717
-0.0968007
-0.0968609
-0.096895
-0.0968985
-0.0968668
-0.0967959
-0.0966828
-0.0965258
-0.096323
-0.0960723
-0.0957714
-0.0954182
-0.0950105
-0.0945463
-0.0940232
-0.0934379
-0.0927862
-0.092065
-0.0912716
-0.0904037
-0.0894585
-0.0884324
-0.0873203
-0.0861147
-0.0848043
-0.0833733
-0.0818001
-0.0800581
-0.0781169
-0.075944
-0.0735068
-0.0707751
-0.0677245
-0.0643395
-0.0606173
-0.05657
-0.0522259
-0.047629
-0.0428369
-0.0379209
-0.0329638
-0.0280552
-0.0232852
-0.0187397
-0.0144935
-0.010606
-0.00711764
-0.00405324
-0.00142217
0.000775471
0.00255152
0.00392571
0.00493064
0.00560201
0.00598274
0.00611287
0.00603874
0.00580113
0.0054456
0.00500667
0.00452195
0.00401354
0.00350798
0.00301362
0.00254824
0.0021095
0.00171188
0.00134668
0.00103066
0.000749072
0.000521327
0.000324147
0.000182146
6.34336e-05
1.57843e-06
-4.68265e-05
-0.0782901
-0.0860777
-0.0900673
-0.091495
-0.0919257
-0.0922535
-0.0927379
-0.0933368
-0.093936
-0.0944607
-0.0948902
-0.0952339
-0.0955101
-0.095733
-0.095909
-0.0960378
-0.0961147
-0.0961337
-0.0960884
-0.0959739
-0.0957863
-0.0955235
-0.0951842
-0.0947678
-0.094274
-0.0937023
-0.0930525
-0.0923244
-0.0915172
-0.09063
-0.0896618
-0.0886117
-0.087479
-0.0862631
-0.0849627
-0.0835759
-0.0820996
-0.0805287
-0.0788561
-0.0770721
-0.0751638
-0.0731157
-0.0709097
-0.0685261
-0.0659456
-0.063152
-0.0601339
-0.0568867
-0.0534147
-0.0497331
-0.0458693
-0.0418629
-0.0377658
-0.0336367
-0.0295383
-0.0255362
-0.0216967
-0.0180838
-0.0147522
-0.0117431
-0.00908354
-0.00678789
-0.00485637
-0.00327636
-0.00202741
-0.00108602
-0.000421619
1.07439e-07
0.000220601
0.000280718
0.000223227
8.20653e-05
-0.00011037
-0.000331249
-0.000554488
-0.000764951
-0.000944484
-0.00109105
-0.00119586
-0.00126788
-0.00130119
-0.00130861
-0.00127654
-0.00122142
-0.00112299
-0.00100665
-0.000842379
-0.000667535
-0.000436448
-0.000204566
-0.068021
-0.0752313
-0.0805752
-0.0840485
-0.0861687
-0.0875992
-0.0887889
-0.089916
-0.090992
-0.0919716
-0.0928177
-0.093521
-0.0940921
-0.0945477
-0.0949007
-0.095157
-0.0953165
-0.0953757
-0.0953303
-0.0951766
-0.0949124
-0.0945368
-0.0940508
-0.093456
-0.0927549
-0.0919501
-0.0910445
-0.0900408
-0.0889416
-0.0877492
-0.0864657
-0.0850925
-0.0836312
-0.0820828
-0.0804478
-0.0787263
-0.0769174
-0.0750193
-0.0730291
-0.0709427
-0.0687546
-0.0664584
-0.0640469
-0.0615129
-0.0588489
-0.0560484
-0.0531075
-0.0500269
-0.0468129
-0.0434799
-0.0400522
-0.0365652
-0.0330657
-0.0296069
-0.0262443
-0.0230306
-0.0200108
-0.0172203
-0.0146864
-0.0124326
-0.010482
-0.00885051
-0.00753189
-0.00649316
-0.00569131
-0.00509222
-0.00467169
-0.00440629
-0.00426106
-0.00419243
-0.00415828
-0.00413301
-0.00410423
-0.00406839
-0.00401817
-0.0039479
-0.00384823
-0.00371831
-0.00355458
-0.00336368
-0.00314263
-0.00290155
-0.00263497
-0.00235609
-0.0020519
-0.00174065
-0.00139664
-0.00104893
-0.00065184
-0.00026128
-0.0627279
-0.069345
-0.0748083
-0.0790107
-0.0820757
-0.0843153
-0.086072
-0.0875851
-0.0889624
-0.0902215
-0.0913426
-0.0923054
-0.0931035
-0.0937427
-0.0942326
-0.0945807
-0.0947901
-0.09486
-0.0947881
-0.094572
-0.0942108
-0.0937051
-0.0930575
-0.0922722
-0.091354
-0.0903086
-0.0891421
-0.0878603
-0.0864693
-0.0849742
-0.08338
-0.0816904
-0.079909
-0.0780385
-0.0760814
-0.0740398
-0.0719158
-0.0697111
-0.0674271
-0.0650654
-0.0626272
-0.0601141
-0.057528
-0.0548716
-0.0521469
-0.0493565
-0.0465032
-0.0435916
-0.0406283
-0.0376239
-0.0345958
-0.0315721
-0.0285946
-0.0257183
-0.0230033
-0.0204995
-0.0182331
-0.0162016
-0.0143854
-0.0127773
-0.0114009
-0.0102906
-0.00944676
-0.00881708
-0.00831914
-0.00789767
-0.00754471
-0.0072705
-0.00706673
-0.00689826
-0.00672392
-0.00651858
-0.00627497
-0.00600168
-0.00571231
-0.00541787
-0.00512013
-0.00481795
-0.00450635
-0.00418466
-0.0038498
-0.00350483
-0.00314697
-0.00278138
-0.00240207
-0.00201606
-0.00160928
-0.00119352
-0.0007386
-0.000276921
-0.058159
-0.0644193
-0.0698669
-0.0744044
-0.0780368
-0.0808974
-0.0831975
-0.0851383
-0.0868531
-0.0884006
-0.0897886
-0.0910038
-0.0920325
-0.0928694
-0.0935163
-0.0939773
-0.0942556
-0.094352
-0.0942663
-0.093998
-0.0935483
-0.09292
-0.0921179
-0.0911485
-0.0900196
-0.0887397
-0.0873181
-0.0857643
-0.0840877
-0.082297
-0.0803997
-0.0784023
-0.0763103
-0.0741287
-0.071862
-0.0695149
-0.0670924
-0.0646002
-0.0620446
-0.0594329
-0.0567728
-0.0540727
-0.0513424
-0.0485925
-0.0458345
-0.0430803
-0.0403409
-0.0376254
-0.0349402
-0.0322903
-0.0296815
-0.0271265
-0.024651
-0.0223077
-0.0201665
-0.018289
-0.0166934
-0.0153291
-0.0141112
-0.0129955
-0.0120031
-0.0111951
-0.0106006
-0.0101711
-0.00980012
-0.0094045
-0.00897548
-0.00855657
-0.0081807
-0.00784307
-0.00752481
-0.00721603
-0.00690058
-0.00656812
-0.00621965
-0.00586176
-0.00549873
-0.00513261
-0.00476325
-0.00439128
-0.00401556
-0.00363659
-0.00325255
-0.00286453
-0.00246937
-0.00206794
-0.00165275
-0.00122366
-0.000762373
-0.000278235
-0.054536
-0.0605869
-0.0660078
-0.0707201
-0.0746997
-0.0780003
-0.0807439
-0.0830769
-0.0851209
-0.0869483
-0.0885852
-0.0900296
-0.0912682
-0.0922893
-0.0930866
-0.0936582
-0.094004
-0.0941242
-0.0940193
-0.0936906
-0.0931422
-0.0923804
-0.0914138
-0.0902521
-0.088906
-0.0873874
-0.0857087
-0.0838827
-0.081922
-0.0798385
-0.0776429
-0.0753447
-0.0729521
-0.0704724
-0.0679127
-0.0652804
-0.062584
-0.0598337
-0.0570414
-0.0542207
-0.0513868
-0.0485549
-0.0457401
-0.0429582
-0.0402287
-0.0375733
-0.0350108
-0.0325515
-0.0301982
-0.0279475
-0.0257923
-0.0237247
-0.0217425
-0.0198783
-0.0181955
-0.0167731
-0.0156454
-0.014732
-0.0139136
-0.0131197
-0.0123574
-0.011656
-0.0110532
-0.010569
-0.0101571
-0.00976372
-0.00937785
-0.00901086
-0.00864028
-0.00825224
-0.00784887
-0.00743309
-0.00701592
-0.00660972
-0.00621996
-0.00584317
-0.00547675
-0.00511573
-0.00475476
-0.0043904
-0.00402075
-0.0036452
-0.00326276
-0.00287384
-0.0024774
-0.00207313
-0.00165681
-0.00122477
-0.00076673
-0.000279978
-0.0516223
-0.0575632
-0.0629686
-0.0677724
-0.0719541
-0.0755463
-0.0786258
-0.081292
-0.0836388
-0.0857333
-0.0876088
-0.0892711
-0.0907098
-0.0919096
-0.0928573
-0.0935435
-0.0939631
-0.094113
-0.0939925
-0.0936037
-0.0929534
-0.0920533
-0.0909173
-0.0895603
-0.087997
-0.0862431
-0.0843145
-0.0822276
-0.0799987
-0.0776432
-0.0751752
-0.0726073
-0.0699508
-0.0672158
-0.0644122
-0.0615505
-0.0586428
-0.0557034
-0.05275
-0.0498036
-0.0468879
-0.0440269
-0.0412397
-0.038538
-0.0359427
-0.0334806
-0.0311699
-0.029012
-0.0269958
-0.0251093
-0.0233368
-0.021668
-0.020112
-0.0186696
-0.0173577
-0.0162183
-0.0152514
-0.0144311
-0.013716
-0.0130823
-0.0125372
-0.0120934
-0.0116681
-0.0111673
-0.0105783
-0.00996838
-0.00941007
-0.00891779
-0.00849418
-0.00811419
-0.00774696
-0.00737714
-0.00700155
-0.00662112
-0.00624121
-0.00586689
-0.00549709
-0.00512943
-0.00476148
-0.00439145
-0.00401733
-0.00363785
-0.00325239
-0.0028607
-0.00246197
-0.00205509
-0.00163703
-0.00120477
-0.000753898
-0.000273106
-0.0492264
-0.055138
-0.0605409
-0.0653906
-0.0696878
-0.0734712
-0.076801
-0.0797451
-0.0823678
-0.0847199
-0.0868312
-0.08871
-0.0903481
-0.0917281
-0.092831
-0.0936406
-0.0941449
-0.0943367
-0.094213
-0.0937757
-0.0930333
-0.0920026
-0.0907042
-0.0891601
-0.0873928
-0.0854244
-0.0832768
-0.0809713
-0.078528
-0.0759653
-0.0733
-0.0705466
-0.0677182
-0.0648268
-0.061884
-0.0589021
-0.055895
-0.0528795
-0.049876
-0.0469097
-0.0440098
-0.0412088
-0.0385345
-0.0360012
-0.0336268
-0.0314246
-0.0293921
-0.0275104
-0.0257449
-0.0240566
-0.0224415
-0.0209334
-0.0195895
-0.0184622
-0.0175727
-0.0168601
-0.0161392
-0.0153021
-0.0143545
-0.013402
-0.0125864
-0.0119274
-0.0113926
-0.0109102
-0.0104284
-0.00994103
-0.009464
-0.00901704
-0.00860232
-0.00820441
-0.00781126
-0.00741799
-0.00702581
-0.00663802
-0.00625593
-0.00587896
-0.00550613
-0.00513546
-0.00476464
-0.00439174
-0.00401518
-0.00363371
-0.00324635
-0.00285237
-0.00245077
-0.00204007
-0.00161819
-0.00118462
-0.000738909
-0.000264478
-0.0476908
-0.0535645
-0.0589295
-0.0637775
-0.0681325
-0.0720355
-0.0755378
-0.0786895
-0.0815335
-0.0841045
-0.0864233
-0.0884944
-0.090308
-0.0918458
-0.0930858
-0.0940063
-0.0945897
-0.0948239
-0.0947041
-0.0942333
-0.093422
-0.092286
-0.0908489
-0.0891406
-0.0871943
-0.085043
-0.082718
-0.0802476
-0.0776568
-0.0749667
-0.0721953
-0.0693572
-0.0664653
-0.0635305
-0.0605634
-0.057575
-0.054578
-0.0515878
-0.0486236
-0.0457104
-0.0428784
-0.0401651
-0.0376101
-0.0352568
-0.0331316
-0.0312341
-0.0295314
-0.0279635
-0.0264633
-0.0249412
-0.0233682
-0.0217645
-0.0202053
-0.01879
-0.017601
-0.0166121
-0.0157533
-0.014944
-0.014156
-0.0134049
-0.0127207
-0.0121257
-0.0115897
-0.0110688
-0.0105443
-0.0100233
-0.00952403
-0.00905836
-0.00862444
-0.00821386
-0.00781657
-0.00742567
-0.00703813
-0.00665352
-0.00627254
-0.00589532
-0.00552105
-0.00514824
-0.00477512
-0.00440003
-0.00402144
-0.00363807
-0.00324877
-0.0028525
-0.00244808
-0.00203399
-0.00160892
-0.00117383
-0.000729703
-0.000259892
-0.0467744
-0.0526641
-0.0580279
-0.062892
-0.0672965
-0.0712848
-0.0749019
-0.0781923
-0.0811947
-0.0839326
-0.0864148
-0.0886376
-0.0905876
-0.0922448
-0.0935861
-0.0945891
-0.0952354
-0.0955126
-0.0954166
-0.0949522
-0.0941334
-0.0929821
-0.0915266
-0.0897989
-0.0878331
-0.0856635
-0.0833224
-0.0808394
-0.0782406
-0.0755479
-0.0727798
-0.0699513
-0.0670752
-0.0641623
-0.0612225
-0.0582657
-0.0553032
-0.052348
-0.0494166
-0.0465297
-0.0437126
-0.0409953
-0.0384107
-0.0359885
-0.0337487
-0.031695
-0.0298128
-0.0280758
-0.0264429
-0.0248168
-0.0232158
-0.021659
-0.0202064
-0.0189236
-0.0178304
-0.0168976
-0.0160344
-0.0151814
-0.0143317
-0.0135203
-0.0127935
-0.0121584
-0.0115905
-0.0110541
-0.0105323
-0.010026
-0.00954391
-0.00908912
-0.00865901
-0.00824644
-0.00784464
-0.00744965
-0.00705995
-0.00667519
-0.00629508
-0.0059189
-0.00554545
-0.00517317
-0.00480037
-0.00442546
-0.00404695
-0.00366353
-0.00327397
-0.00287707
-0.00247149
-0.00205573
-0.00162845
-0.00118957
-0.000739095
-0.000264382
)
;

boundaryField
{
    fixedWalls
    {
        type            zeroGradient;
    }
    inflowWall
    {
        type            zeroGradient;
    }
    outflowWall
    {
        type            fixedValue;
        value           uniform 0;
    }
    frontAndBack
    {
        type            empty;
    }
}


// ************************************************************************* //
