/*--------------------------------*- C++ -*----------------------------------*\
| =========                 |                                                 |
| \\      /  F ield         | OpenFOAM: The Open Source CFD Toolbox           |
|  \\    /   O peration     | Version:  2306                                  |
|   \\  /    A nd           | Website:  www.openfoam.com                      |
|    \\/     M anipulation  |                                                 |
\*---------------------------------------------------------------------------*/
FoamFile
{
    version     2.0;
    format      ascii;
    arch        "LSB;label=32;scalar=64";
    class       volScalarField;
    location    "0.02";
    object      p;
}
// * * * * * * * * * * * * * * * * * * * * * * * * * * * * * * * * * * * * * //

dimensions      [0 2 -2 0 0 0 0];

internalField   nonuniform List<scalar> 
475
(
3.72469
3.00569
2.54013
2.19732
1.80858
3.14551
2.84974
2.53023
2.24689
1.98011
3.04332
2.84772
2.58316
2.32941
2.11276
3.18805
2.90008
2.60796
2.36787
2.17081
3.77997
3.0681
2.63707
2.37101
2.16179
1.62268
1.68175
1.72786
1.75085
1.74812
1.72518
1.6894
1.64646
1.60006
1.55235
1.50448
1.45704
1.41023
1.3641
1.3186
1.27365
1.22915
1.18502
1.14117
1.09754
1.05407
1.01074
0.967502
0.924338
0.881228
0.838156
0.795113
0.75209
0.709082
0.666086
0.623097
0.580115
0.537136
0.494161
0.451187
0.408215
0.365243
0.322273
0.279303
0.236333
0.193364
0.150394
0.107424
0.0644526
0.0214827
1.57286
1.64373
1.69183
1.71885
1.72152
1.70388
1.67283
1.6339
1.59073
1.54552
1.49955
1.45351
1.40772
1.36233
1.31736
1.27278
1.22854
1.18459
1.14087
1.09733
1.05394
1.01065
0.967443
0.924298
0.881201
0.838138
0.795101
0.752082
0.709077
0.666082
0.623095
0.580114
0.537136
0.49416
0.451187
0.408214
0.365243
0.322273
0.279303
0.236333
0.193364
0.150395
0.107425
0.0644546
0.0214842
1.50138
1.60525
1.66912
1.7041
1.71027
1.694
1.66384
1.62595
1.58396
1.53995
1.49509
1.45001
1.40502
1.36028
1.31581
1.27163
1.22769
1.18397
1.14041
1.097
1.0537
1.01047
0.967318
0.92421
0.881138
0.838094
0.795071
0.75206
0.709062
0.666072
0.623088
0.580108
0.537132
0.494158
0.451185
0.408213
0.365242
0.322272
0.279302
0.236333
0.193364
0.150395
0.107426
0.0644552
0.021485
1.37825
1.55289
1.64951
1.69608
1.70495
1.68825
1.65726
1.61912
1.57748
1.5342
1.49021
1.44601
1.40182
1.35777
1.31387
1.27015
1.22657
1.18313
1.13979
1.09654
1.05336
1.01023
0.967137
0.924078
0.881043
0.838025
0.795019
0.752026
0.709037
0.666055
0.623076
0.5801
0.537126
0.494153
0.451182
0.408211
0.365241
0.322271
0.279302
0.236333
0.193364
0.150395
0.107426
0.0644553
0.0214854
1.092
1.4915
1.64981
1.70256
1.70723
1.68629
1.65256
1.6131
1.57123
1.52836
1.4851
1.44172
1.39833
1.35499
1.3117
1.26847
1.22529
1.18216
1.13906
1.096
1.05296
1.00993
0.966922
0.923922
0.88093
0.837944
0.794962
0.751984
0.709008
0.666034
0.623061
0.580089
0.537118
0.494148
0.451178
0.408208
0.365238
0.322269
0.279301
0.236332
0.193363
0.150394
0.107425
0.0644553
0.0214855
1.4943
1.61484
1.7148
1.73786
1.72085
1.68822
1.64911
1.60744
1.56501
1.52244
1.47988
1.43732
1.39473
1.35212
1.30945
1.26673
1.22396
1.18115
1.13831
1.09544
1.05254
1.00962
0.966697
0.923758
0.880811
0.837858
0.794901
0.75194
0.708976
0.666011
0.623045
0.580078
0.53711
0.494142
0.451174
0.408205
0.365236
0.322268
0.279299
0.236331
0.193363
0.150394
0.107425
0.0644551
0.0214854
1.7768
1.75807
1.77818
1.76418
1.72783
1.68575
1.64283
1.60008
1.55784
1.51604
1.47443
1.43284
1.39114
1.34928
1.30724
1.26503
1.22267
1.18018
1.13758
1.09489
1.05214
1.00933
0.966482
0.923602
0.880698
0.837777
0.794844
0.751898
0.708946
0.66599
0.62303
0.580067
0.537103
0.494137
0.45117
0.408202
0.365234
0.322266
0.279298
0.23633
0.193362
0.150394
0.107425
0.0644548
0.0214852
1.94432
1.86025
1.81685
1.77227
1.72376
1.67699
1.63296
1.59081
1.5498
1.50935
1.46901
1.42854
1.38777
1.34668
1.30526
1.26353
1.22154
1.17934
1.13696
1.09443
1.0518
1.00908
0.966301
0.923471
0.880603
0.837708
0.794791
0.751863
0.708922
0.665973
0.623018
0.580059
0.537097
0.494132
0.451167
0.4082
0.365233
0.322265
0.279298
0.23633
0.193361
0.150393
0.107424
0.0644544
0.0214848
2.00999
1.89706
1.82056
1.76035
1.70815
1.66199
1.61998
1.58022
1.54144
1.50287
1.46406
1.42477
1.38494
1.34456
1.30368
1.26236
1.22068
1.17871
1.1365
1.0941
1.05156
1.00891
0.966177
0.923382
0.88054
0.837664
0.794761
0.751841
0.708907
0.665962
0.623011
0.580054
0.537093
0.49413
0.451165
0.408199
0.365232
0.322265
0.279297
0.236329
0.193361
0.150393
0.107424
0.0644536
0.0214839
1.99069
1.86513
1.78041
1.72122
1.67548
1.63667
1.60107
1.56641
1.5315
1.49577
1.45901
1.4212
1.38242
1.34279
1.30244
1.26149
1.22007
1.17828
1.1362
1.09389
1.05142
1.00882
0.966118
0.923342
0.880514
0.837646
0.79475
0.751833
0.708902
0.665959
0.623009
0.580052
0.537092
0.494129
0.451165
0.408199
0.365232
0.322265
0.279297
0.236329
0.193361
0.150392
0.107422
0.0644516
0.0214823
)
;

boundaryField
{
    fixedWalls
    {
        type            zeroGradient;
    }
    inflowWall
    {
        type            zeroGradient;
    }
    outflowWall
    {
        type            fixedValue;
        value           uniform 0;
    }
    frontAndBack
    {
        type            empty;
    }
}


// ************************************************************************* //
