/*--------------------------------*- C++ -*----------------------------------*\
| =========                 |                                                 |
| \\      /  F ield         | OpenFOAM: The Open Source CFD Toolbox           |
|  \\    /   O peration     | Version:  2306                                  |
|   \\  /    A nd           | Website:  www.openfoam.com                      |
|    \\/     M anipulation  |                                                 |
\*---------------------------------------------------------------------------*/
FoamFile
{
    version     2.0;
    format      ascii;
    arch        "LSB;label=32;scalar=64";
    class       volVectorField;
    location    "0.02";
    object      U;
}
// * * * * * * * * * * * * * * * * * * * * * * * * * * * * * * * * * * * * * //

dimensions      [0 1 -1 0 0 0 0];

internalField   nonuniform List<vector> 
47500
(
(0.708058 0.141127 0)
(0.605107 0.126852 0)
(0.442238 0.0756731 0)
(0.323206 0.0428884 0)
(0.252633 0.0249075 0)
(0.207945 0.0151456 0)
(0.177272 0.00977625 0)
(0.155211 0.00671587 0)
(0.138724 0.00487104 0)
(0.125983 0.00368662 0)
(0.115878 0.00288018 0)
(0.107707 0.00230326 0)
(0.101002 0.00187386 0)
(0.0954382 0.00154417 0)
(0.0907804 0.00128471 0)
(0.0868557 0.00107641 0)
(0.0835331 0.0009064 0)
(0.0807113 0.000765676 0)
(0.0783109 0.000647773 0)
(0.0762685 0.000547925 0)
(0.0745332 0.000462554 0)
(0.0730634 0.000388923 0)
(0.0718249 0.000324898 0)
(0.0707895 0.000268791 0)
(0.0699336 0.00021925 0)
(0.0692377 0.000175167 0)
(0.0686852 0.000135637 0)
(0.0682626 9.98954e-05 0)
(0.0679584 6.72758e-05 0)
(0.0677635 3.72008e-05 0)
(0.0676703 9.15524e-06 0)
(0.0676734 -1.73342e-05 0)
(0.0677687 -4.27171e-05 0)
(0.067954 -6.74506e-05 0)
(0.0682289 -9.19909e-05 0)
(0.0685949 -0.000116832 0)
(0.069056 -0.00014254 0)
(0.0696192 -0.000169807 0)
(0.0702954 -0.000199544 0)
(0.0711011 -0.000233061 0)
(0.0720612 -0.000272587 0)
(0.0732141 -0.00032262 0)
(0.0746224 -0.000393511 0)
(0.076397 -0.000511994 0)
(0.0787485 -0.000750559 0)
(0.0820987 -0.00130922 0)
(0.0874255 -0.0027469 0)
(0.0975197 -0.006707 0)
(0.119215 -0.0183255 0)
(0.160746 -0.0534447 0)
(0.990011 0.273751 0)
(0.981278 0.298006 0)
(0.863907 0.216087 0)
(0.734154 0.146994 0)
(0.628342 0.100185 0)
(0.545514 0.0697604 0)
(0.480715 0.0501466 0)
(0.429865 0.0372939 0)
(0.389561 0.0285959 0)
(0.357178 0.0224893 0)
(0.330811 0.0180494 0)
(0.309087 0.0147199 0)
(0.291012 0.012156 0)
(0.275847 0.0101373 0)
(0.263041 0.00851748 0)
(0.252173 0.00719675 0)
(0.242914 0.00610489 0)
(0.235008 0.00519129 0)
(0.228251 0.00441865 0)
(0.222476 0.00375897 0)
(0.217549 0.00319084 0)
(0.213359 0.00269761 0)
(0.209816 0.00226618 0)
(0.206841 0.00188603 0)
(0.204372 0.00154862 0)
(0.202355 0.00124693 0)
(0.200745 0.000975026 0)
(0.199504 0.000727881 0)
(0.198602 0.000501095 0)
(0.198014 0.000290713 0)
(0.197718 9.31204e-05 0)
(0.197702 -9.51468e-05 0)
(0.197954 -0.000277541 0)
(0.19847 -0.000457651 0)
(0.199251 -0.00063947 0)
(0.200305 -0.000827613 0)
(0.201647 -0.00102785 0)
(0.203303 -0.00124774 0)
(0.205313 -0.00149785 0)
(0.207738 -0.00179388 0)
(0.210666 -0.00216068 0)
(0.214235 -0.00264036 0)
(0.218658 -0.00330949 0)
(0.224276 -0.00431677 0)
(0.231651 -0.00596872 0)
(0.241706 -0.0089199 0)
(0.255998 -0.014593 0)
(0.277296 -0.0261572 0)
(0.309335 -0.0507479 0)
(0.350777 -0.101583 0)
(1.02873 0.230537 0)
(1.06518 0.337268 0)
(1.02858 0.307925 0)
(0.952135 0.249914 0)
(0.866816 0.194697 0)
(0.786028 0.150057 0)
(0.71454 0.116282 0)
(0.653339 0.0912652 0)
(0.601671 0.0726976 0)
(0.558208 0.0587437 0)
(0.5216 0.0480818 0)
(0.490664 0.0397906 0)
(0.464413 0.0332319 0)
(0.44205 0.027961 0)
(0.422932 0.023664 0)
(0.406543 0.0201157 0)
(0.392464 0.0171518 0)
(0.380359 0.0146503 0)
(0.369948 0.0125194 0)
(0.361004 0.0106887 0)
(0.353338 0.00910352 0)
(0.346792 0.00772084 0)
(0.341233 0.00650629 0)
(0.336549 0.00543206 0)
(0.332647 0.00447535 0)
(0.329448 0.00361712 0)
(0.326884 0.00284129 0)
(0.324899 0.00213398 0)
(0.323446 0.00148293 0)
(0.322489 0.000877079 0)
(0.321996 0.000306067 0)
(0.321947 -0.000240124 0)
(0.322326 -0.000771638 0)
(0.323129 -0.00129928 0)
(0.324359 -0.00183517 0)
(0.32603 -0.00239372 0)
(0.328168 -0.00299299 0)
(0.330817 -0.0036569 0)
(0.334043 -0.00441876 0)
(0.337941 -0.00532707 0)
(0.342651 -0.00645602 0)
(0.348376 -0.0079236 0)
(0.355412 -0.0099254 0)
(0.364193 -0.0127969 0)
(0.375348 -0.0171295 0)
(0.389752 -0.023978 0)
(0.40854 -0.0352008 0)
(0.43297 -0.0539819 0)
(0.46334 -0.0854337 0)
(0.495344 -0.135321 0)
(1.02485 0.170711 0)
(1.07011 0.314569 0)
(1.08054 0.338839 0)
(1.05263 0.311304 0)
(1.00168 0.266997 0)
(0.941534 0.221972 0)
(0.880547 0.182427 0)
(0.823073 0.14975 0)
(0.770983 0.123409 0)
(0.724764 0.10233 0)
(0.684216 0.0854293 0)
(0.64885 0.0717905 0)
(0.618087 0.0606861 0)
(0.591356 0.0515576 0)
(0.568136 0.04398 0)
(0.547968 0.0376305 0)
(0.530456 0.0322628 0)
(0.515261 0.0276872 0)
(0.502092 0.0237566 0)
(0.490704 0.0203556 0)
(0.480887 0.0173927 0)
(0.472461 0.0147945 0)
(0.465274 0.0125016 0)
(0.459194 0.0104653 0)
(0.45411 0.00864504 0)
(0.449926 0.00700674 0)
(0.446561 0.00552118 0)
(0.443946 0.00416291 0)
(0.442024 0.00290927 0)
(0.440748 0.00173952 0)
(0.440082 0.00063412 0)
(0.44 -0.000426075 0)
(0.440484 -0.00146062 0)
(0.441529 -0.00249049 0)
(0.443139 -0.00353934 0)
(0.445333 -0.00463533 0)
(0.448146 -0.00581359 0)
(0.451634 -0.00712013 0)
(0.455876 -0.00861777 0)
(0.460987 -0.0103956 0)
(0.467126 -0.0125841 0)
(0.474513 -0.0153803 0)
(0.483445 -0.0190877 0)
(0.494316 -0.0241831 0)
(0.50762 -0.0314179 0)
(0.523919 -0.0419661 0)
(0.543709 -0.0575903 0)
(0.567086 -0.0807399 0)
(0.592874 -0.114297 0)
(0.61709 -0.159895 0)
(1.01676 0.128183 0)
(1.05702 0.275097 0)
(1.08733 0.331666 0)
(1.09076 0.333555 0)
(1.07017 0.308233 0)
(1.0344 0.272544 0)
(0.990916 0.235515 0)
(0.944937 0.201278 0)
(0.899712 0.171288 0)
(0.857055 0.145705 0)
(0.81783 0.124142 0)
(0.782334 0.106038 0)
(0.750538 0.0908248 0)
(0.722249 0.0779959 0)
(0.6972 0.0671238 0)
(0.675096 0.0578578 0)
(0.65565 0.0499134 0)
(0.638589 0.0430613 0)
(0.623666 0.0371163 0)
(0.610658 0.0319286 0)
(0.599368 0.0273762 0)
(0.589622 0.0233591 0)
(0.581265 0.0197946 0)
(0.574165 0.0166137 0)
(0.568203 0.0137582 0)
(0.56328 0.0111783 0)
(0.559308 0.00883088 0)
(0.556213 0.00667786 0)
(0.553931 0.00468496 0)
(0.552413 0.00282048 0)
(0.551618 0.00105424 0)
(0.551517 -0.000643534 0)
(0.552091 -0.0023035 0)
(0.553333 -0.00395858 0)
(0.55525 -0.00564594 0)
(0.557863 -0.00740943 0)
(0.561209 -0.00930328 0)
(0.565347 -0.0113971 0)
(0.57036 -0.0137837 0)
(0.576363 -0.0165903 0)
(0.583506 -0.0199955 0)
(0.591985 -0.0242553 0)
(0.602042 -0.0297395 0)
(0.61396 -0.0369852 0)
(0.628035 -0.0467633 0)
(0.644494 -0.0601491 0)
(0.663337 -0.0785504 0)
(0.684051 -0.103596 0)
(0.705125 -0.136692 0)
(0.72361 -0.177823 0)
(1.01072 0.0991221 0)
(1.04302 0.235136 0)
(1.07863 0.306958 0)
(1.09888 0.330627 0)
(1.09983 0.324216 0)
(1.08512 0.301649 0)
(1.05968 0.272121 0)
(1.02792 0.241058 0)
(0.99326 0.211323 0)
(0.958069 0.18421 0)
(0.923875 0.160136 0)
(0.891576 0.139066 0)
(0.861641 0.120754 0)
(0.834268 0.104881 0)
(0.809478 0.0911212 0)
(0.787195 0.079171 0)
(0.767286 0.0687626 0)
(0.749593 0.0596652 0)
(0.733948 0.0516826 0)
(0.720184 0.0446496 0)
(0.708145 0.0384264 0)
(0.697681 0.0328955 0)
(0.688658 0.0279569 0)
(0.680955 0.0235256 0)
(0.674461 0.0195282 0)
(0.669081 0.0159011 0)
(0.664729 0.0125881 0)
(0.661331 0.009539 0)
(0.658827 0.00670798 0)
(0.657163 0.00405218 0)
(0.6563 0.00153037 0)
(0.656208 -0.000898437 0)
(0.656866 -0.00327656 0)
(0.658269 -0.00564951 0)
(0.660423 -0.0080684 0)
(0.663346 -0.010593 0)
(0.667076 -0.0132959 0)
(0.671666 -0.0162687 0)
(0.677193 -0.0196296 0)
(0.683755 -0.0235355 0)
(0.691476 -0.028198 0)
(0.700503 -0.0339048 0)
(0.710999 -0.0410484 0)
(0.723122 -0.0501594 0)
(0.73698 -0.0619389 0)
(0.752548 -0.0772711 0)
(0.769537 -0.0971762 0)
(0.787208 -0.122639 0)
(0.804179 -0.154221 0)
(0.818407 -0.191359 0)
(1.00696 0.0786916 0)
(1.03213 0.199689 0)
(1.06653 0.276153 0)
(1.09412 0.313567 0)
(1.10836 0.322468 0)
(1.10929 0.312939 0)
(1.0993 0.292876 0)
(1.08133 0.267785 0)
(1.05822 0.241174 0)
(1.03228 0.215093 0)
(1.00525 0.190626 0)
(0.978356 0.168256 0)
(0.952397 0.148116 0)
(0.927879 0.130144 0)
(0.905085 0.114183 0)
(0.884149 0.100038 0)
(0.865107 0.087505 0)
(0.847929 0.0763912 0)
(0.832547 0.066518 0)
(0.818872 0.0577262 0)
(0.806802 0.0498752 0)
(0.796233 0.0428416 0)
(0.787063 0.0365175 0)
(0.779193 0.0308082 0)
(0.772533 0.0256302 0)
(0.766998 0.0209093 0)
(0.762514 0.0165791 0)
(0.759014 0.0125789 0)
(0.75644 0.00885251 0)
(0.754745 0.00534685 0)
(0.753891 0.00201024 0)
(0.753848 -0.00120903 0)
(0.754599 -0.00436454 0)
(0.756135 -0.00751385 0)
(0.758462 -0.0107211 0)
(0.761596 -0.0140605 0)
(0.765567 -0.0176207 0)
(0.770421 -0.0215105 0)
(0.776218 -0.0258672 0)
(0.783032 -0.0308662 0)
(0.79095 -0.036735 0)
(0.800065 -0.0437686 0)
(0.810457 -0.0523479 0)
(0.822175 -0.0629557 0)
(0.835184 -0.0761835 0)
(0.849303 -0.0927107 0)
(0.864111 -0.113231 0)
(0.878858 -0.138293 0)
(0.892408 -0.168018 0)
(0.903367 -0.201726 0)
(1.00471 0.0639091 0)
(1.02438 0.169747 0)
(1.05521 0.244841 0)
(1.08477 0.289576 0)
(1.10621 0.309389 0)
(1.11765 0.310919 0)
(1.11952 0.300252 0)
(1.11335 0.282246 0)
(1.10109 0.260437 0)
(1.08464 0.237211 0)
(1.0656 0.214079 0)
(1.04527 0.191929 0)
(1.0246 0.171232 0)
(1.00428 0.152192 0)
(0.984778 0.134848 0)
(0.9664 0.119146 0)
(0.949326 0.10498 0)
(0.933652 0.0922226 0)
(0.91941 0.0807379 0)
(0.906594 0.0703935 0)
(0.895167 0.0610641 0)
(0.885077 0.0526336 0)
(0.876262 0.044996 0)
(0.868658 0.038055 0)
(0.862198 0.0317229 0)
(0.856817 0.0259198 0)
(0.852457 0.0205725 0)
(0.849062 0.0156128 0)
(0.846586 0.0109764 0)
(0.844985 0.0066017 0)
(0.844228 0.00242803 0)
(0.844288 -0.00160571 0)
(0.84515 -0.00556302 0)
(0.846804 -0.00951196 0)
(0.849255 -0.0135279 0)
(0.852513 -0.0176966 0)
(0.856601 -0.0221192 0)
(0.861553 -0.0269166 0)
(0.867408 -0.032237 0)
(0.874215 -0.0382641 0)
(0.882021 -0.0452263 0)
(0.890866 -0.0534074 0)
(0.900763 -0.0631554 0)
(0.911675 -0.0748858 0)
(0.923475 -0.0890729 0)
(0.935902 -0.106215 0)
(0.948503 -0.126763 0)
(0.960602 -0.150987 0)
(0.971308 -0.178805 0)
(0.979657 -0.209578 0)
(1.00335 0.0528452 0)
(1.01893 0.144824 0)
(1.04577 0.215478 0)
(1.07457 0.263028 0)
(1.09924 0.28979 0)
(1.11711 0.299771 0)
(1.1274 0.297304 0)
(1.13052 0.286304 0)
(1.12757 0.269947 0)
(1.11987 0.250619 0)
(1.10872 0.230015 0)
(1.09528 0.209272 0)
(1.08051 0.189115 0)
(1.06516 0.169971 0)
(1.04979 0.152065 0)
(1.03483 0.135491 0)
(1.02055 0.120253 0)
(1.00717 0.106306 0)
(0.994794 0.0935753 0)
(0.983495 0.0819694 0)
(0.973302 0.071392 0)
(0.964217 0.0617458 0)
(0.956221 0.0529362 0)
(0.949286 0.0448731 0)
(0.943374 0.0374713 0)
(0.938446 0.0306502 0)
(0.934462 0.024334 0)
(0.931381 0.0184505 0)
(0.92917 0.0129301 0)
(0.927795 0.00770499 0)
(0.92723 0.00270784 0)
(0.927456 -0.00212993 0)
(0.928457 -0.00687972 0)
(0.930227 -0.0116179 0)
(0.932766 -0.0164284 0)
(0.936081 -0.0214056 0)
(0.940185 -0.0266585 0)
(0.945098 -0.0323149 0)
(0.950843 -0.038527 0)
(0.957439 -0.0454772 0)
(0.964901 -0.0533844 0)
(0.973222 -0.0625095 0)
(0.982366 -0.0731571 0)
(0.992236 -0.0856713 0)
(1.00266 -0.100419 0)
(1.01333 -0.117755 0)
(1.02384 -0.137956 0)
(1.03359 -0.161131 0)
(1.04191 -0.187111 0)
(1.0481 -0.215346 0)
(1.00249 0.044277 0)
(1.01506 0.124061 0)
(1.03818 0.188923 0)
(1.06502 0.23637 0)
(1.09053 0.266947 0)
(1.11191 0.282836 0)
(1.12777 0.286919 0)
(1.13777 0.282141 0)
(1.1423 0.271143 0)
(1.14211 0.256099 0)
(1.13816 0.238688 0)
(1.13135 0.220153 0)
(1.12254 0.201366 0)
(1.11245 0.182916 0)
(1.10165 0.165182 0)
(1.09062 0.148384 0)
(1.07971 0.132637 0)
(1.06918 0.117983 0)
(1.05922 0.104412 0)
(1.04996 0.0918847 0)
(1.04149 0.0803423 0)
(1.03385 0.069715 0)
(1.02708 0.0599274 0)
(1.02117 0.0509024 0)
(1.01612 0.0425627 0)
(1.01192 0.0348326 0)
(1.00854 0.0276377 0)
(1.00598 0.0209052 0)
(1.00419 0.0145636 0)
(1.00317 0.0085418 0)
(1.0029 0.00276794 0)
(1.00336 -0.00283148 0)
(1.00453 -0.00833336 0)
(1.00643 -0.0138198 0)
(1.00904 -0.0193804 0)
(1.01236 -0.0251147 0)
(1.0164 -0.0311356 0)
(1.02118 -0.0375726 0)
(1.02669 -0.044576 0)
(1.03292 -0.0523206 0)
(1.03988 -0.0610089 0)
(1.04751 -0.0708727 0)
(1.05575 -0.0821708 0)
(1.06446 -0.0951806 0)
(1.07345 -0.110179 0)
(1.08243 -0.127411 0)
(1.091 -0.147038 0)
(1.09869 -0.169076 0)
(1.10497 -0.19333 0)
(1.10934 -0.219342 0)
(1.00193 0.037444 0)
(1.01224 0.106634 0)
(1.03215 0.165284 0)
(1.05662 0.210848 0)
(1.08162 0.242941 0)
(1.10456 0.262561 0)
(1.12383 0.271492 0)
(1.13864 0.271829 0)
(1.14886 0.265644 0)
(1.15481 0.254785 0)
(1.15706 0.240796 0)
(1.15626 0.224902 0)
(1.15309 0.208032 0)
(1.14817 0.19087 0)
(1.14204 0.173897 0)
(1.13516 0.157437 0)
(1.12791 0.141696 0)
(1.12059 0.126796 0)
(1.11342 0.112792 0)
(1.10658 0.0996999 0)
(1.10019 0.0875012 0)
(1.09435 0.0761586 0)
(1.08912 0.0656214 0)
(1.08454 0.0558302 0)
(1.08062 0.0467207 0)
(1.07739 0.0382258 0)
(1.07483 0.0302765 0)
(1.07295 0.0228031 0)
(1.07175 0.0157349 0)
(1.0712 0.0090002 0)
(1.07131 0.00252561 0)
(1.07207 -0.00376492 0)
(1.07347 -0.00995122 0)
(1.0755 -0.0161184 0)
(1.07817 -0.0223588 0)
(1.08148 -0.0287739 0)
(1.08541 -0.0354768 0)
(1.08998 -0.0425948 0)
(1.09516 -0.0502718 0)
(1.10095 -0.0586704 0)
(1.10729 -0.0679732 0)
(1.11414 -0.0783812 0)
(1.1214 -0.0901098 0)
(1.12892 -0.103378 0)
(1.13651 -0.118391 0)
(1.14388 -0.135314 0)
(1.1507 -0.154233 0)
(1.15658 -0.175113 0)
(1.1611 -0.197762 0)
(1.16389 -0.221803 0)
(1.00154 0.0318627 0)
(1.01015 0.0918661 0)
(1.02736 0.144362 0)
(1.04944 0.18702 0)
(1.07324 0.219022 0)
(1.0965 0.240639 0)
(1.11761 0.252876 0)
(1.13557 0.257145 0)
(1.14994 0.254994 0)
(1.16069 0.247918 0)
(1.16806 0.237254 0)
(1.17246 0.224134 0)
(1.17437 0.20947 0)
(1.17428 0.193978 0)
(1.17266 0.178195 0)
(1.16991 0.162515 0)
(1.16641 0.147214 0)
(1.16245 0.132478 0)
(1.15827 0.118423 0)
(1.15408 0.10511 0)
(1.15003 0.0925658 0)
(1.14624 0.0807848 0)
(1.1428 0.0697433 0)
(1.13977 0.059403 0)
(1.1372 0.0497154 0)
(1.13512 0.0406249 0)
(1.13355 0.0320714 0)
(1.13252 0.0239907 0)
(1.13201 0.0163158 0)
(1.13205 0.00897719 0)
(1.13263 0.00190212 0)
(1.13375 -0.00498539 0)
(1.13541 -0.0117657 0)
(1.13761 -0.0185243 0)
(1.14035 -0.0253535 0)
(1.14362 -0.0323539 0)
(1.14742 -0.0396358 0)
(1.15173 -0.047321 0)
(1.15654 -0.055544 0)
(1.16181 -0.0644531 0)
(1.1675 -0.0742093 0)
(1.17353 -0.0849841 0)
(1.1798 -0.0969536 0)
(1.18615 -0.110289 0)
(1.19239 -0.125139 0)
(1.19828 -0.141613 0)
(1.20353 -0.159747 0)
(1.20781 -0.179483 0)
(1.2108 -0.200642 0)
(1.21221 -0.222915 0)
(1.00126 0.0272133 0)
(1.00855 0.0792214 0)
(1.02353 0.125846 0)
(1.04339 0.165062 0)
(1.06567 0.195892 0)
(1.0885 0.218189 0)
(1.11038 0.232432 0)
(1.13026 0.239516 0)
(1.1475 0.240546 0)
(1.16184 0.236684 0)
(1.17329 0.229038 0)
(1.18202 0.2186 0)
(1.18834 0.206219 0)
(1.1926 0.19259 0)
(1.19514 0.17827 0)
(1.19634 0.163688 0)
(1.19649 0.149165 0)
(1.19588 0.134935 0)
(1.19476 0.121158 0)
(1.19332 0.107941 0)
(1.19174 0.0953441 0)
(1.19014 0.0833954 0)
(1.18864 0.0720971 0)
(1.18732 0.0614325 0)
(1.18625 0.0513703 0)
(1.18547 0.0418688 0)
(1.18503 0.032878 0)
(1.18495 0.0243418 0)
(1.18526 0.016199 0)
(1.18596 0.00838419 0)
(1.18708 0.000827722 0)
(1.18862 -0.00654426 0)
(1.19058 -0.0138102 0)
(1.19297 -0.021054 0)
(1.19578 -0.0283656 0)
(1.19902 -0.0358419 0)
(1.20267 -0.0435883 0)
(1.20671 -0.0517188 0)
(1.21112 -0.0603569 0)
(1.21587 -0.0696351 0)
(1.22088 -0.0796934 0)
(1.22609 -0.0906762 0)
(1.23138 -0.102726 0)
(1.23661 -0.115974 0)
(1.2416 -0.130529 0)
(1.24614 -0.146457 0)
(1.24998 -0.163767 0)
(1.25285 -0.18239 0)
(1.2545 -0.202163 0)
(1.25469 -0.222833 0)
(1.00105 0.0232758 0)
(1.00731 0.0682833 0)
(1.02044 0.109414 0)
(1.03831 0.144952 0)
(1.059 0.173911 0)
(1.08097 0.195921 0)
(1.10292 0.211123 0)
(1.12381 0.220038 0)
(1.14292 0.223421 0)
(1.15986 0.222141 0)
(1.17444 0.217084 0)
(1.18667 0.209088 0)
(1.1967 0.198905 0)
(1.20472 0.187182 0)
(1.21101 0.17446 0)
(1.21581 0.161175 0)
(1.2194 0.147671 0)
(1.22202 0.134209 0)
(1.22389 0.120984 0)
(1.22519 0.108133 0)
(1.2261 0.0957476 0)
(1.22676 0.0838828 0)
(1.22727 0.0725649 0)
(1.22775 0.0617973 0)
(1.22827 0.0515662 0)
(1.22888 0.0418436 0)
(1.22965 0.0325912 0)
(1.23061 0.0237619 0)
(1.2318 0.0153019 0)
(1.23324 0.00715157 0)
(1.23495 -0.000754051 0)
(1.23695 -0.00848483 0)
(1.23925 -0.0161156 0)
(1.24185 -0.0237264 0)
(1.24475 -0.0314029 0)
(1.24796 -0.0392369 0)
(1.25145 -0.0473268 0)
(1.25522 -0.0557774 0)
(1.25924 -0.0647002 0)
(1.26345 -0.074212 0)
(1.2678 -0.0844332 0)
(1.27221 -0.0954836 0)
(1.27657 -0.107478 0)
(1.28076 -0.120516 0)
(1.2846 -0.134674 0)
(1.28791 -0.149992 0)
(1.29049 -0.16646 0)
(1.29212 -0.184005 0)
(1.29258 -0.202486 0)
(1.2917 -0.22169 0)
(1.00089 0.0198929 0)
(1.00633 0.0587266 0)
(1.01794 0.094763 0)
(1.03406 0.126569 0)
(1.05319 0.153223 0)
(1.07412 0.174255 0)
(1.09569 0.1896 0)
(1.11695 0.199519 0)
(1.13719 0.204503 0)
(1.15591 0.205179 0)
(1.17282 0.202233 0)
(1.1878 0.19635 0)
(1.20085 0.188174 0)
(1.21206 0.178285 0)
(1.22159 0.167185 0)
(1.22963 0.155294 0)
(1.23635 0.142959 0)
(1.24197 0.130453 0)
(1.24667 0.11799 0)
(1.25061 0.105727 0)
(1.25396 0.0937795 0)
(1.25684 0.0822226 0)
(1.25938 0.071103 0)
(1.26167 0.0604417 0)
(1.26381 0.0502404 0)
(1.26585 0.0404847 0)
(1.26788 0.0311475 0)
(1.26992 0.0221914 0)
(1.27203 0.0135705 0)
(1.27424 0.00523217 0)
(1.27658 -0.00288274 0)
(1.27907 -0.0108387 0)
(1.28172 -0.0187055 0)
(1.28454 -0.0265579 0)
(1.28755 -0.034476 0)
(1.29074 -0.0425449 0)
(1.29409 -0.0508548 0)
(1.29759 -0.0595007 0)
(1.30121 -0.0685818 0)
(1.30491 -0.0781997 0)
(1.30862 -0.0884566 0)
(1.31228 -0.0994514 0)
(1.31577 -0.111275 0)
(1.31899 -0.124003 0)
(1.32179 -0.137689 0)
(1.324 -0.152353 0)
(1.32545 -0.167973 0)
(1.32598 -0.18448 0)
(1.32539 -0.201749 0)
(1.32356 -0.219602 0)
(1.00077 0.0169489 0)
(1.00555 0.050295 0)
(1.01589 0.0816235 0)
(1.0305 0.109748 0)
(1.0482 0.133845 0)
(1.068 0.153418 0)
(1.08894 0.168285 0)
(1.11016 0.178537 0)
(1.13097 0.184469 0)
(1.15085 0.186519 0)
(1.16943 0.185203 0)
(1.18649 0.181066 0)
(1.20195 0.174644 0)
(1.2158 0.166438 0)
(1.22809 0.156899 0)
(1.23893 0.146418 0)
(1.24844 0.135327 0)
(1.25678 0.123896 0)
(1.26408 0.112346 0)
(1.27049 0.100844 0)
(1.27614 0.0895195 0)
(1.28116 0.0784626 0)
(1.28565 0.0677343 0)
(1.28972 0.0573702 0)
(1.29346 0.0473847 0)
(1.29693 0.0377752 0)
(1.3002 0.028525 0)
(1.30333 0.0196061 0)
(1.30637 0.0109808 0)
(1.30936 0.00260345 0)
(1.31234 -0.00557827 0)
(1.31532 -0.0136227 0)
(1.31833 -0.0215936 0)
(1.32139 -0.0295595 0)
(1.32451 -0.0375938 0)
(1.32768 -0.045774 0)
(1.33089 -0.0541816 0)
(1.33414 -0.0629013 0)
(1.33739 -0.0720202 0)
(1.3406 -0.0816256 0)
(1.34371 -0.0918036 0)
(1.34666 -0.102635 0)
(1.34935 -0.114191 0)
(1.35168 -0.126529 0)
(1.35353 -0.139684 0)
(1.35475 -0.153663 0)
(1.35521 -0.168439 0)
(1.35475 -0.183945 0)
(1.35324 -0.200072 0)
(1.35057 -0.21667 0)
(1.00067 0.0143557 0)
(1.00492 0.0427837 0)
(1.01422 0.0697605 0)
(1.02753 0.0943119 0)
(1.04393 0.11572 0)
(1.06262 0.133507 0)
(1.08281 0.147435 0)
(1.10372 0.157486 0)
(1.12472 0.163819 0)
(1.14529 0.166727 0)
(1.16501 0.166588 0)
(1.18363 0.163825 0)
(1.20096 0.158873 0)
(1.21692 0.152155 0)
(1.2315 0.144061 0)
(1.24472 0.134945 0)
(1.25665 0.125111 0)
(1.26738 0.114817 0)
(1.27702 0.104278 0)
(1.28568 0.0936645 0)
(1.29346 0.0831088 0)
(1.30047 0.0727104 0)
(1.3068 0.0625394 0)
(1.31255 0.0526412 0)
(1.31781 0.04304 0)
(1.32265 0.0337428 0)
(1.32713 0.0247419 0)
(1.33132 0.0160172 0)
(1.33527 0.00753892 0)
(1.33902 -0.000731446 0)
(1.34261 -0.00883946 0)
(1.34608 -0.0168369 0)
(1.34946 -0.0247809 0)
(1.35274 -0.0327333 0)
(1.35597 -0.04076 0)
(1.35912 -0.0489305 0)
(1.36221 -0.0573174 0)
(1.36521 -0.0659951 0)
(1.3681 -0.0750389 0)
(1.37085 -0.0845234 0)
(1.3734 -0.0945199 0)
(1.3757 -0.105094 0)
(1.37765 -0.116301 0)
(1.37918 -0.128182 0)
(1.38017 -0.140761 0)
(1.38051 -0.154035 0)
(1.38007 -0.167973 0)
(1.37875 -0.182514 0)
(1.37642 -0.197562 0)
(1.37299 -0.212988 0)
(1.0006 0.0120448 0)
(1.00442 0.0360264 0)
(1.01285 0.05897 0)
(1.02507 0.0800809 0)
(1.04032 0.0987481 0)
(1.05798 0.114535 0)
(1.07736 0.127186 0)
(1.09782 0.13662 0)
(1.11875 0.142906 0)
(1.13967 0.14623 0)
(1.16014 0.146861 0)
(1.17987 0.14512 0)
(1.19862 0.141352 0)
(1.21625 0.135903 0)
(1.23267 0.129107 0)
(1.24787 0.121269 0)
(1.26185 0.112662 0)
(1.27465 0.103523 0)
(1.28634 0.0940514 0)
(1.29698 0.0844117 0)
(1.30667 0.0747347 0)
(1.31548 0.0651214 0)
(1.32349 0.0556459 0)
(1.3308 0.0463589 0)
(1.33747 0.0372911 0)
(1.34358 0.0284562 0)
(1.34919 0.0198532 0)
(1.35437 0.0114692 0)
(1.35917 0.0032808 0)
(1.36364 -0.00474369 0)
(1.36782 -0.0126434 0)
(1.37175 -0.0204634 0)
(1.37545 -0.0282541 0)
(1.37895 -0.0360703 0)
(1.38226 -0.0439704 0)
(1.3854 -0.0520157 0)
(1.38836 -0.0602697 0)
(1.39112 -0.0687971 0)
(1.39368 -0.077662 0)
(1.39599 -0.0869271 0)
(1.39802 -0.0966511 0)
(1.39971 -0.106886 0)
(1.40099 -0.117675 0)
(1.40179 -0.129047 0)
(1.40201 -0.141014 0)
(1.40155 -0.153569 0)
(1.40033 -0.16668 0)
(1.39823 -0.180289 0)
(1.39517 -0.194312 0)
(1.39107 -0.208638 0)
(1.00054 0.00996142 0)
(1.00401 0.0298858 0)
(1.01173 0.0490741 0)
(1.02303 0.0668845 0)
(1.03729 0.0828069 0)
(1.05401 0.0964575 0)
(1.07262 0.107589 0)
(1.09255 0.11609 0)
(1.11327 0.121971 0)
(1.1343 0.125342 0)
(1.15522 0.126389 0)
(1.17571 0.125351 0)
(1.1955 0.122495 0)
(1.21442 0.118099 0)
(1.23231 0.112437 0)
(1.24912 0.105769 0)
(1.26479 0.0983306 0)
(1.27933 0.0903303 0)
(1.29276 0.0819487 0)
(1.30512 0.0733367 0)
(1.31647 0.0646172 0)
(1.32686 0.0558869 0)
(1.33636 0.047219 0)
(1.34505 0.0386654 0)
(1.35299 0.0302596 0)
(1.36025 0.022019 0)
(1.36688 0.0139474 0)
(1.37296 0.00603692 0)
(1.37853 -0.0017302 0)
(1.38365 -0.00937999 0)
(1.38835 -0.0169455 0)
(1.39268 -0.0244657 0)
(1.39668 -0.0319843 0)
(1.40036 -0.039549 0)
(1.40374 -0.0472109 0)
(1.40684 -0.0550232 0)
(1.40966 -0.0630406 0)
(1.4122 -0.0713182 0)
(1.41443 -0.0799102 0)
(1.41633 -0.0888683 0)
(1.41787 -0.09824 0)
(1.419 -0.108066 0)
(1.41967 -0.118379 0)
(1.4198 -0.129197 0)
(1.41932 -0.140527 0)
(1.41816 -0.152356 0)
(1.41622 -0.164651 0)
(1.41344 -0.177358 0)
(1.40974 -0.190404 0)
(1.40504 -0.203693 0)
(1.00049 0.00806083 0)
(1.00368 0.0242465 0)
(1.01083 0.0399171 0)
(1.02137 0.0545616 0)
(1.03479 0.0677636 0)
(1.05069 0.0791974 0)
(1.06859 0.0886393 0)
(1.08799 0.0959693 0)
(1.1084 0.101164 0)
(1.12939 0.104282 0)
(1.15055 0.105449 0)
(1.17154 0.104836 0)
(1.19209 0.102646 0)
(1.21196 0.0990973 0)
(1.23099 0.0944092 0)
(1.24906 0.0887941 0)
(1.2661 0.0824494 0)
(1.28206 0.075553 0)
(1.29693 0.0682609 0)
(1.31073 0.0607058 0)
(1.32348 0.0529975 0)
(1.33522 0.0452238 0)
(1.346 0.0374524 0)
(1.35588 0.0297325 0)
(1.36491 0.0220971 0)
(1.37316 0.0145647 0)
(1.38068 0.0071413 0)
(1.38753 -0.000177615 0)
(1.39377 -0.00740571 0)
(1.39944 -0.0145644 0)
(1.40459 -0.0216813 0)
(1.40926 -0.0287899 0)
(1.41348 -0.0359274 0)
(1.4173 -0.0431352 0)
(1.42072 -0.0504568 0)
(1.42376 -0.0579378 0)
(1.42643 -0.0656245 0)
(1.42872 -0.0735633 0)
(1.43064 -0.0817988 0)
(1.43215 -0.0903731 0)
(1.43323 -0.0993237 0)
(1.43384 -0.108682 0)
(1.43394 -0.11847 0)
(1.43346 -0.128701 0)
(1.43236 -0.139374 0)
(1.43055 -0.150472 0)
(1.42799 -0.161964 0)
(1.42459 -0.1738 0)
(1.42031 -0.185914 0)
(1.4151 -0.198221 0)
(1.00045 0.00630562 0)
(1.00342 0.0190098 0)
(1.01011 0.031361 0)
(1.02003 0.0429615 0)
(1.03277 0.0534811 0)
(1.04797 0.0626541 0)
(1.06524 0.0702891 0)
(1.08415 0.0762726 0)
(1.10424 0.0805654 0)
(1.1251 0.0831937 0)
(1.14635 0.0842376 0)
(1.16765 0.083818 0)
(1.18871 0.0820837 0)
(1.20927 0.0791996 0)
(1.22915 0.075336 0)
(1.24819 0.0706605 0)
(1.26629 0.0653317 0)
(1.28338 0.0594944 0)
(1.2994 0.0532773 0)
(1.31436 0.0467912 0)
(1.32824 0.040129 0)
(1.34108 0.0333658 0)
(1.35291 0.0265601 0)
(1.36377 0.0197549 0)
(1.3737 0.0129796 0)
(1.38276 0.00625119 0)
(1.39101 -0.000424117 0)
(1.39849 -0.00704941 0)
(1.40527 -0.0136356 0)
(1.41138 -0.0202006 0)
(1.41688 -0.0267678 0)
(1.4218 -0.0333653 0)
(1.42619 -0.0400249 0)
(1.43008 -0.0467816 0)
(1.43349 -0.0536721 0)
(1.43643 -0.0607347 0)
(1.43893 -0.068008 0)
(1.44098 -0.0755298 0)
(1.44257 -0.0833364 0)
(1.4437 -0.0914611 0)
(1.44434 -0.0999327 0)
(1.44447 -0.108774 0)
(1.44404 -0.118 0)
(1.44301 -0.127617 0)
(1.44133 -0.137619 0)
(1.43895 -0.147987 0)
(1.43582 -0.158691 0)
(1.43188 -0.169684 0)
(1.42708 -0.180905 0)
(1.4214 -0.192281 0)
(1.00042 0.00466373 0)
(1.00322 0.0140892 0)
(1.00956 0.0232815 0)
(1.019 0.0319428 0)
(1.03118 0.0398223 0)
(1.04583 0.0467139 0)
(1.06258 0.0524641 0)
(1.08104 0.0569758 0)
(1.10082 0.0602066 0)
(1.12153 0.0621633 0)
(1.14278 0.0628946 0)
(1.16425 0.0624819 0)
(1.18564 0.0610297 0)
(1.20668 0.0586571 0)
(1.22716 0.0554896 0)
(1.24691 0.0516527 0)
(1.2658 0.0472666 0)
(1.28372 0.0424424 0)
(1.30062 0.0372797 0)
(1.31646 0.0318649 0)
(1.33122 0.0262711 0)
(1.3449 0.0205574 0)
(1.35754 0.0147702 0)
(1.36915 0.00894372 0)
(1.37977 0.00310108 0)
(1.38946 -0.00274452 0)
(1.39825 -0.00858863 0)
(1.40621 -0.0144344 0)
(1.41338 -0.0202916 0)
(1.4198 -0.0261754 0)
(1.42554 -0.0321059 0)
(1.43062 -0.0381068 0)
(1.43509 -0.0442049 0)
(1.43898 -0.0504293 0)
(1.44232 -0.0568105 0)
(1.44512 -0.0633799 0)
(1.44741 -0.0701687 0)
(1.44919 -0.0772074 0)
(1.45046 -0.0845244 0)
(1.45121 -0.0921449 0)
(1.45143 -0.10009 0)
(1.45109 -0.108376 0)
(1.45016 -0.11701 0)
(1.44862 -0.125993 0)
(1.44642 -0.135317 0)
(1.44352 -0.14496 0)
(1.43987 -0.154892 0)
(1.43544 -0.165068 0)
(1.43019 -0.175435 0)
(1.42409 -0.185927 0)
(1.0004 0.003107 0)
(1.00308 0.00940773 0)
(1.00915 0.0155653 0)
(1.01823 0.0213721 0)
(1.03001 0.0266511 0)
(1.04422 0.031255 0)
(1.06056 0.0350711 0)
(1.07868 0.0380251 0)
(1.09819 0.0400797 0)
(1.11873 0.0412324 0)
(1.13994 0.04151 0)
(1.16149 0.0409631 0)
(1.18306 0.0396595 0)
(1.2044 0.0376785 0)
(1.22528 0.0351049 0)
(1.24551 0.0320244 0)
(1.26493 0.02852 0)
(1.28344 0.0246688 0)
(1.30094 0.0205404 0)
(1.3174 0.0161951 0)
(1.33276 0.0116839 0)
(1.34704 0.00704816 0)
(1.36023 0.00231967 0)
(1.37236 -0.00247844 0)
(1.38346 -0.00733125 0)
(1.39356 -0.0122311 0)
(1.40272 -0.017177 0)
(1.41098 -0.0221736 0)
(1.41838 -0.0272304 0)
(1.42498 -0.0323613 0)
(1.43083 -0.0375834 0)
(1.43596 -0.042917 0)
(1.44041 -0.0483843 0)
(1.44422 -0.0540091 0)
(1.44742 -0.0598163 0)
(1.45004 -0.0658307 0)
(1.45208 -0.072077 0)
(1.45356 -0.0785787 0)
(1.45449 -0.0853568 0)
(1.45486 -0.0924298 0)
(1.45466 -0.0998118 0)
(1.45388 -0.107512 0)
(1.45249 -0.115534 0)
(1.45047 -0.123872 0)
(1.44778 -0.132515 0)
(1.4444 -0.141441 0)
(1.44029 -0.150618 0)
(1.43543 -0.160006 0)
(1.42977 -0.169555 0)
(1.4233 -0.179205 0)
(1.00039 0.00161003 0)
(1.00298 0.00489483 0)
(1.00888 0.00810704 0)
(1.01772 0.0111221 0)
(1.02922 0.0138335 0)
(1.04314 0.016151 0)
(1.05919 0.0180047 0)
(1.07705 0.0193465 0)
(1.09636 0.0201505 0)
(1.11676 0.0204106 0)
(1.13791 0.0201386 0)
(1.15946 0.0193604 0)
(1.18112 0.0181128 0)
(1.20262 0.0164391 0)
(1.22371 0.0143869 0)
(1.2442 0.0120041 0)
(1.26394 0.00933741 0)
(1.28278 0.00643027 0)
(1.30063 0.00332145 0)
(1.31744 4.43717e-05 0)
(1.33316 -0.00337332 0)
(1.34777 -0.00690991 0)
(1.36127 -0.0105495 0)
(1.37368 -0.0142816 0)
(1.38503 -0.018101 0)
(1.39534 -0.0220071 0)
(1.40466 -0.0260033 0)
(1.41304 -0.0300969 0)
(1.42051 -0.0342981 0)
(1.42714 -0.0386201 0)
(1.43296 -0.0430781 0)
(1.43802 -0.047689 0)
(1.44235 -0.0524712 0)
(1.446 -0.0574438 0)
(1.44899 -0.0626262 0)
(1.45135 -0.0680376 0)
(1.45311 -0.0736964 0)
(1.45426 -0.0796195 0)
(1.45483 -0.0858218 0)
(1.45481 -0.0923151 0)
(1.45419 -0.0991075 0)
(1.45298 -0.106203 0)
(1.45114 -0.113599 0)
(1.44867 -0.121287 0)
(1.44554 -0.129252 0)
(1.44172 -0.137472 0)
(1.43719 -0.145916 0)
(1.43192 -0.154544 0)
(1.4259 -0.163309 0)
(1.41911 -0.172159 0)
(1.00038 0.000149259 0)
(1.00293 0.000484554 0)
(1.00874 0.000806703 0)
(1.01745 0.00107051 0)
(1.0288 0.00123706 0)
(1.04256 0.00127301 0)
(1.05845 0.00115165 0)
(1.07616 0.000853592 0)
(1.09534 0.000366741 0)
(1.11564 -0.000314309 0)
(1.13672 -0.00118917 0)
(1.15824 -0.0022528 0)
(1.1799 -0.0034967 0)
(1.20142 -0.00491021 0)
(1.22257 -0.00648158 0)
(1.24314 -0.00819899 0)
(1.26296 -0.0100513 0)
(1.28191 -0.0120289 0)
(1.29987 -0.0141237 0)
(1.31678 -0.01633 0)
(1.33259 -0.018644 0)
(1.34728 -0.0210647 0)
(1.36084 -0.0235928 0)
(1.37329 -0.0262318 0)
(1.38465 -0.0289867 0)
(1.39496 -0.0318647 0)
(1.40424 -0.0348747 0)
(1.41255 -0.0380271 0)
(1.41993 -0.0413335 0)
(1.42642 -0.0448068 0)
(1.43208 -0.0484606 0)
(1.43694 -0.0523093 0)
(1.44105 -0.0563677 0)
(1.44444 -0.0606503 0)
(1.44715 -0.0651718 0)
(1.4492 -0.069946 0)
(1.45061 -0.0749855 0)
(1.4514 -0.0803014 0)
(1.45158 -0.0859025 0)
(1.45116 -0.0917951 0)
(1.45013 -0.0979817 0)
(1.44849 -0.104461 0)
(1.44622 -0.111226 0)
(1.44332 -0.118266 0)
(1.43977 -0.125563 0)
(1.43554 -0.133093 0)
(1.43063 -0.140824 0)
(1.42501 -0.148721 0)
(1.41866 -0.156739 0)
(1.41158 -0.164828 0)
(1.00038 -0.00129781 0)
(1.00293 -0.0038865 0)
(1.00873 -0.00643241 0)
(1.01742 -0.0089027 0)
(1.02874 -0.0112693 0)
(1.04247 -0.0135091 0)
(1.05834 -0.0156052 0)
(1.07601 -0.0175477 0)
(1.09514 -0.0193337 0)
(1.11539 -0.020967 0)
(1.1364 -0.0224571 0)
(1.15785 -0.0238187 0)
(1.17943 -0.0250704 0)
(1.20087 -0.0262335 0)
(1.22192 -0.0273312 0)
(1.24239 -0.0283875 0)
(1.26209 -0.0294266 0)
(1.28091 -0.0304724 0)
(1.29873 -0.0315477 0)
(1.31549 -0.0326747 0)
(1.33114 -0.0338738 0)
(1.34566 -0.0351647 0)
(1.35904 -0.0365654 0)
(1.37129 -0.0380932 0)
(1.38244 -0.0397641 0)
(1.39251 -0.0415932 0)
(1.40156 -0.043595 0)
(1.40961 -0.0457835 0)
(1.41671 -0.0481717 0)
(1.42292 -0.0507726 0)
(1.42828 -0.0535985 0)
(1.43282 -0.0566614 0)
(1.4366 -0.0599725 0)
(1.43964 -0.0635427 0)
(1.44198 -0.0673817 0)
(1.44365 -0.0714984 0)
(1.44467 -0.0759001 0)
(1.44506 -0.0805925 0)
(1.44483 -0.0855791 0)
(1.44399 -0.0908608 0)
(1.44253 -0.0964352 0)
(1.44047 -0.102296 0)
(1.43779 -0.108434 0)
(1.43448 -0.114834 0)
(1.43053 -0.121475 0)
(1.42593 -0.128334 0)