/*--------------------------------*- C++ -*----------------------------------*\
| =========                 |                                                 |
| \\      /  F ield         | OpenFOAM: The Open Source CFD Toolbox           |
|  \\    /   O peration     | Version:  2306                                  |
|   \\  /    A nd           | Website:  www.openfoam.com                      |
|    \\/     M anipulation  |                                                 |
\*---------------------------------------------------------------------------*/
FoamFile
{
    version     2.0;
    format      ascii;
    arch        "LSB;label=32;scalar=64";
    class       surfaceScalarField;
    location    "0.46";
    object      phi;
}
// * * * * * * * * * * * * * * * * * * * * * * * * * * * * * * * * * * * * * //

dimensions      [0 3 -1 0 0 0 0];

oriented        oriented;

internalField   nonuniform List<scalar> 
94400
(
7.3514e-06
2.6486e-06
5.10551e-06
2.24589e-06
3.71254e-06
1.39297e-06
2.84757e-06
8.6497e-07
2.29182e-06
5.55758e-07
1.91981e-06
3.72004e-07
1.65897e-06
2.60842e-07
1.46775e-06
1.91221e-07
1.32225e-06
1.455e-07
1.20826e-06
1.13986e-07
1.11695e-06
9.13164e-08
1.04253e-06
7.44198e-08
9.81069e-07
6.14571e-08
9.29793e-07
5.12762e-08
8.86669e-07
4.31241e-08
8.50179e-07
3.64903e-08
8.19161e-07
3.10175e-08
7.92713e-07
2.64485e-08
7.70119e-07
2.25941e-08
7.50806e-07
1.93123e-08
7.34312e-07
1.64945e-08
7.20255e-07
1.40563e-08
7.08324e-07
1.19312e-08
6.98258e-07
1.0066e-08
6.89841e-07
8.41731e-09
6.82891e-07
6.94967e-09
6.77258e-07
5.63329e-09
6.72815e-07
4.44286e-09
6.69459e-07
3.35648e-09
6.67104e-07
2.35477e-09
6.65684e-07
1.42014e-09
6.65148e-07
5.36105e-10
6.65461e-07
-3.13425e-10
6.66606e-07
-1.14485e-09
6.68582e-07
-1.97585e-09
6.71408e-07
-2.82664e-09
6.7513e-07
-3.72181e-09
6.79823e-07
-4.69306e-09
6.85607e-07
-5.784e-09
6.92666e-07
-7.05861e-09
7.01284e-07
-8.61751e-09
7.11916e-07
-1.06322e-08
7.25336e-07
-1.34208e-08
7.42965e-07
-1.7629e-08
7.67634e-07
-2.46689e-08
8.05417e-07
-3.77823e-08
8.70062e-07
-6.46455e-08
9.946e-07
-1.24538e-07
1.26467e-06
-2.7007e-07
-6.37141e-07
1.90181e-06
1.01831e-05
2.46545e-06
9.21641e-06
3.21262e-06
7.94626e-06
2.66312e-06
6.79703e-06
2.01419e-06
5.86109e-06
1.4917e-06
5.12472e-06
1.10838e-06
4.54841e-06
8.37158e-07
4.09392e-06
6.45706e-07
3.73105e-06
5.08371e-07
3.43744e-06
4.07599e-07
3.19687e-06
3.31888e-07
2.99757e-06
2.73714e-07
2.83093e-06
2.28101e-07
2.69051e-06
1.91693e-07
2.57146e-06
1.62176e-07
2.47003e-06
1.37918e-07
2.38331e-06
1.17743e-07
2.30897e-06
1.00784e-07
2.24517e-06
8.63942e-08
2.1904e-06
7.40805e-08
2.14344e-06
6.3461e-08
2.10326e-06
5.42362e-08
2.06902e-06
4.61676e-08
2.04002e-06
3.90627e-08
2.01568e-06
3.27643e-08
1.99548e-06
2.71418e-08
1.97903e-06
2.20851e-08
1.96598e-06
1.75002e-08
1.95603e-06
1.33047e-08
1.94896e-06
9.42528e-09
1.94458e-06
5.79433e-09
1.94277e-06
2.34764e-09
1.94344e-06
-9.78437e-10
1.94654e-06
-4.25021e-09
1.95211e-06
-7.54071e-09
1.96021e-06
-1.09351e-08
1.97103e-06
-1.45391e-08
1.98483e-06
-1.84914e-08
2.00203e-06
-2.29845e-08
2.02327e-06
-2.82996e-08
2.04952e-06
-3.48692e-08
2.08228e-06
-4.33922e-08
2.12392e-06
-5.50539e-08
2.17825e-06
-7.19612e-08
2.25159e-06
-9.80113e-08
2.3544e-06
-1.40594e-07
2.50353e-06
-2.13774e-07
2.72338e-06
-3.44384e-07
3.03569e-06
-5.8238e-07
-9.95686e-07
3.39423e-06
1.05345e-05
1.93093e-06
1.04951e-05
3.25202e-06
9.90361e-06
3.25463e-06
9.09169e-06
2.82611e-06
8.26037e-06
2.32302e-06
7.49873e-06
1.87002e-06
6.83568e-06
1.5002e-06
6.27167e-06
1.20972e-06
5.79603e-06
9.84004e-07
5.39544e-06
8.0819e-07
5.05727e-06
6.7006e-07
4.77069e-06
5.60292e-07
4.52681e-06
4.71986e-07
4.31842e-06
4.00083e-07
4.13973e-06
3.40864e-07
3.98607e-06
2.91575e-07
3.85366e-06
2.50152e-07
3.73941e-06
2.15032e-07
3.64079e-06
1.85015e-07
3.5557e-06
1.59169e-07
3.48241e-06
1.36758e-07
3.41944e-06
1.17199e-07
3.36559e-06
1.00022e-07
3.31981e-06
8.484e-08
3.28124e-06
7.13373e-08
3.24913e-06
5.92471e-08
3.22288e-06
4.83436e-08
3.20195e-06
3.84314e-08
3.18591e-06
2.93386e-08
3.17443e-06
2.09101e-08
3.16722e-06
1.30021e-08
3.16409e-06
5.47672e-09
3.16492e-06
-1.8044e-09
3.16965e-06
-8.98652e-09
3.17834e-06
-1.62307e-08
3.19113e-06
-2.37259e-08
3.2083e-06
-3.17059e-08
3.23028e-06
-4.04759e-08
3.25775e-06
-5.04533e-08
3.29169e-06
-6.22338e-08
3.33352e-06
-7.67004e-08
3.38533e-06
-9.52081e-08
3.45018e-06
-1.19897e-07
3.53245e-06
-1.54233e-07
3.63835e-06
-2.0391e-07
3.77605e-06
-2.7829e-07
3.95467e-06
-3.92393e-07
4.17941e-06
-5.69126e-07
4.4364e-06
-8.3937e-07
-1.22571e-06
4.66642e-06
1.04653e-05
1.46561e-06
1.07771e-05
2.94026e-06
1.06758e-05
3.35591e-06
1.02725e-05
3.22938e-06
9.71463e-06
2.88093e-06
9.108e-06
2.47664e-06
8.51515e-06
2.09305e-06
7.96691e-06
1.75796e-06
7.47487e-06
1.47604e-06
7.0404e-06
1.24266e-06
6.66002e-06
1.05044e-06
6.32837e-06
8.91938e-07
6.03971e-06
7.60647e-07
5.78857e-06
6.51222e-07
5.57005e-06
5.59389e-07
5.37985e-06
4.81771e-07
5.2143e-06
4.15707e-07
5.07023e-06
3.59099e-07
4.94497e-06
3.10281e-07
4.83621e-06
2.67924e-07
4.74201e-06
2.30956e-07
4.6607e-06
1.98509e-07
4.59085e-06
1.6987e-07
4.53125e-06
1.44447e-07
4.48084e-06
1.21747e-07
4.43873e-06
1.01351e-07
4.40418e-06
8.28984e-08
4.37653e-06
6.60749e-08
4.35527e-06
5.06009e-08
4.33996e-06
3.62222e-08
4.33026e-06
2.27006e-08
4.32593e-06
9.806e-09
4.32682e-06
-2.69388e-09
4.33288e-06
-1.50439e-08
4.34416e-06
-2.75157e-08
4.36086e-06
-4.04266e-08
4.38332e-06
-5.41658e-08
4.41208e-06
-6.9233e-08
4.44793e-06
-8.62964e-08
4.49197e-06
-1.0628e-07
4.54577e-06
-1.305e-07
4.61144e-06
-1.60873e-07
4.69177e-06
-2.00236e-07
4.79037e-06
-2.52824e-07
4.9114e-06
-3.24942e-07
5.05889e-06
-4.25779e-07
5.23454e-06
-5.68045e-07
5.43302e-06
-7.67607e-07
5.63357e-06
-1.03992e-06
-1.38693e-06
5.79479e-06
1.0342e-05
1.12359e-06
1.07373e-05
2.54503e-06
1.09003e-05
3.19284e-06
1.08068e-05
3.32291e-06
1.05226e-05
3.16516e-06
1.01251e-05
2.87415e-06
9.67674e-06
2.54137e-06
9.21984e-06
2.21487e-06
8.77955e-06
1.91632e-06
8.36917e-06
1.65305e-06
7.99443e-06
1.42518e-06
7.65665e-06
1.22972e-06
7.35471e-06
1.06259e-06
7.08629e-06
9.19647e-07
6.84856e-06
7.97121e-07
6.6386e-06
6.91732e-07
6.45359e-06
6.00712e-07
6.29093e-06
5.21755e-07
6.14826e-06
4.52951e-07
6.02347e-06
3.92718e-07
5.91468e-06
3.39746e-07
5.82025e-06
2.92941e-07
5.73873e-06
2.51387e-07
5.66886e-06
2.14313e-07
5.60955e-06
1.8106e-07
5.55984e-06
1.5106e-07
5.51892e-06
1.23822e-07
5.48609e-06
9.8908e-08
5.46076e-06
7.59264e-08
5.44247e-06
5.45166e-08
5.43083e-06
3.43378e-08
5.42558e-06
1.50584e-08
5.42654e-06
-3.65777e-09
5.43366e-06
-2.21653e-08
5.447e-06
-4.08563e-08
5.46676e-06
-6.01848e-08
5.4933e-06
-8.06996e-08
5.52715e-06
-1.03091e-07
5.56912e-06
-1.28259e-07
5.62024e-06
-1.57404e-07
5.68191e-06
-1.92167e-07
5.75585e-06
-2.34821e-07
5.84415e-06
-2.8853e-07
5.94901e-06
-3.57687e-07
6.07234e-06
-4.48274e-07
6.21468e-06
-5.68119e-07
6.3733e-06
-7.26666e-07
6.53927e-06
-9.33571e-07
6.69428e-06
-1.19493e-06
-1.50513e-06
6.81248e-06
1.02416e-05
8.8195e-07
1.06171e-05
2.1696e-06
1.08951e-05
2.91479e-06
1.09957e-05
3.22237e-06
1.09248e-05
3.23599e-06
1.07228e-05
3.07613e-06
1.04357e-05
2.82855e-06
1.01024e-05
2.5481e-06
9.75202e-06
2.26673e-06
9.40387e-06
2.0012e-06
9.07002e-06
1.75903e-06
8.75728e-06
1.54245e-06
8.46896e-06
1.35091e-06
8.20612e-06
1.18248e-06
7.96849e-06
1.03476e-06
7.75499e-06
9.0523e-07
7.56416e-06
7.91543e-07
7.39435e-06
6.91566e-07
7.24387e-06
6.03423e-07
7.11111e-06
5.25485e-07
6.99451e-06
4.56347e-07
6.89265e-06
3.94797e-07
6.80424e-06
3.39795e-07
6.72812e-06
2.90437e-07
6.66324e-06
2.4594e-07
6.60868e-06
2.05616e-07
6.56365e-06
1.68855e-07
6.52745e-06
1.35112e-07
6.49948e-06
1.03888e-07
6.47928e-06
7.4721e-08
6.46645e-06
4.71684e-08
6.46071e-06
2.07975e-08
6.46188e-06
-4.83157e-09
6.4699e-06
-3.01829e-08
6.48481e-06
-5.57665e-08
6.50679e-06
-8.2166e-08
6.53617e-06
-1.10075e-07
6.57342e-06
-1.40348e-07
6.61923e-06
-1.74062e-07
6.67444e-06
-2.12613e-07
6.7401e-06
-2.57826e-07
6.81739e-06
-3.1211e-07
6.90749e-06
-3.78633e-07
7.0113e-06
-4.61501e-07
7.1289e-06
-5.65872e-07
7.25863e-06
-6.97847e-07
7.39582e-06
-8.63858e-07
7.5314e-06
-1.06915e-06
7.65137e-06
-1.3149e-06
-1.59374e-06
7.73997e-06
1.01727e-05
7.09201e-07
1.0498e-05
1.84434e-06
1.08084e-05
2.60442e-06
1.10139e-05
3.01689e-06
1.10882e-05
3.16167e-06
1.10418e-05
3.12254e-06
1.09008e-05
2.96957e-06
1.06942e-05
2.75471e-06
1.04476e-05
2.51325e-06
1.01814e-05
2.26742e-06
9.91023e-06
2.0302e-06
9.6442e-06
1.80848e-06
9.38984e-06
1.60527e-06
9.15106e-06
1.42126e-06
8.92993e-06
1.25589e-06
8.72727e-06
1.10789e-06
8.5431e-06
9.75712e-07
8.37693e-06
8.57745e-07
8.22793e-06
7.52417e-07
8.09516e-06
6.58261e-07
7.97756e-06
5.73941e-07
7.8741e-06
4.98255e-07
7.78377e-06
4.30129e-07
7.7056e-06
3.68606e-07
7.63871e-06
3.12829e-07
7.5823e-06
2.62031e-07
7.53564e-06
2.15518e-07
7.49809e-06
1.72657e-07
7.46912e-06
1.32863e-07
7.44826e-06
9.55814e-08
7.43514e-06
6.02819e-08
7.4295e-06
2.6439e-08
7.43115e-06
-6.4826e-09
7.44001e-06
-3.90464e-08
7.45612e-06
-7.18673e-08
7.47959e-06
-1.0564e-07
7.51069e-06
-1.41176e-07
7.54979e-06
-1.7945e-07
7.59739e-06
-2.21658e-07
7.65407e-06
-2.69292e-07
7.72048e-06
-3.24234e-07
7.79721e-06
-3.88849e-07
7.88467e-06
-4.66085e-07
7.98269e-06
-5.59527e-07
8.09016e-06
-6.73344e-07
8.20433e-06
-8.12011e-07
8.32009e-06
-9.79621e-07
8.42956e-06
-1.17862e-06
8.52256e-06
-1.4079e-06
-1.66048e-06
8.58931e-06
1.01274e-05
5.81813e-07
1.04004e-05
1.57135e-06
1.07032e-05
2.30156e-06
1.09558e-05
2.76437e-06
1.1119e-05
2.99842e-06
1.11845e-05
3.05699e-06
1.11619e-05
2.99223e-06
1.10685e-05
2.84808e-06
1.09236e-05
2.65814e-06
1.07447e-05
2.44632e-06
1.05463e-05
2.22868e-06
1.03394e-05
2.01534e-06
1.01324e-05
1.8123e-06
9.93092e-06
1.62271e-06
9.73892e-06
1.44789e-06
9.55877e-06
1.28804e-06
9.39184e-06
1.14264e-06
9.23875e-06
1.01083e-06
9.09962e-06
8.9155e-07
8.97421e-06
7.8367e-07
8.86207e-06
6.86075e-07
8.76263e-06
5.97695e-07
8.67524e-06
5.17521e-07
8.59923e-06
4.4462e-07
8.53393e-06
3.78127e-07
8.47872e-06
3.17243e-07
8.433e-06
2.61231e-07
8.39626e-06
2.09401e-07
8.36802e-06
1.61104e-07
8.34788e-06
1.15719e-07
8.33552e-06
7.26429e-08
8.33068e-06
3.1273e-08
8.33321e-06
-9.00491e-09
8.343e-06
-4.88368e-08
8.36005e-06
-8.89222e-08
8.38445e-06
-1.30042e-07
8.41637e-06
-1.73089e-07
8.45603e-06
-2.19115e-07
8.50374e-06
-2.69369e-07
8.55981e-06
-3.25364e-07
8.62451e-06
-3.88928e-07
8.69792e-06
-4.62266e-07
8.77982e-06
-5.47983e-07
8.86936e-06
-6.49065e-07
8.96475e-06
-7.68736e-07
9.06287e-06
-9.10132e-07
9.15894e-06
-1.07569e-06
9.24654e-06
-1.26622e-06
9.31834e-06
-1.4797e-06
-1.71019e-06
9.36805e-06
1.00972e-05
4.84622e-07
1.03247e-05
1.34385e-06
1.06037e-05
2.02254e-06
1.08694e-05
2.49874e-06
1.10812e-05
2.78659e-06
1.12211e-05
2.91706e-06
1.12871e-05
2.92621e-06
1.12868e-05
2.8484e-06
1.12322e-05
2.71274e-06
1.11365e-05
2.54207e-06
1.10119e-05
2.35327e-06
1.0869e-05
2.15826e-06
1.07162e-05
1.96502e-06
1.05603e-05
1.77865e-06
1.0406e-05
1.60216e-06
1.02569e-05
1.43712e-06
1.01155e-05
1.28412e-06
9.98316e-06
1.14314e-06
9.86095e-06
1.01376e-06
9.74932e-06
8.95302e-07
9.6484e-06
7.86995e-07
9.5581e-06
6.87993e-07
9.47818e-06
5.97444e-07
9.40829e-06
5.14509e-07
9.34804e-06
4.38375e-07
9.29702e-06
3.68267e-07
9.25481e-06
3.03442e-07
9.22102e-06
2.43191e-07
9.19529e-06
1.86831e-07
9.17731e-06
1.33699e-07
9.16682e-06
8.31404e-08
9.16359e-06
3.44983e-08
9.16749e-06
-1.29006e-08
9.17841e-06
-5.97631e-08
9.19634e-06
-1.06849e-07
9.22129e-06
-1.54996e-07
9.25335e-06
-2.05146e-07
9.29262e-06
-2.58379e-07
9.3392e-06
-3.1595e-07
9.39316e-06
-3.79323e-07
9.45444e-06
-4.50208e-07
9.52275e-06
-5.3058e-07
9.59743e-06
-6.22662e-07
9.67722e-06
-7.28858e-07
9.76007e-06
-8.51583e-07
9.84289e-06
-9.92953e-07
9.9215e-06
-1.1543e-06
9.99082e-06
-1.33554e-06
1.00456e-05
-1.53443e-06
-1.7461e-06
1.00815e-05
1.00765e-05
4.08152e-07
1.02668e-05
1.15354e-06
1.05172e-05
1.7721e-06
1.07777e-05
2.2383e-06
1.10114e-05
2.55282e-06
1.11969e-05
2.73156e-06
1.13253e-05
2.79784e-06
1.13968e-05
2.7769e-06
1.14173e-05
2.6923e-06
1.13951e-05
2.56418e-06
1.13397e-05
2.40869e-06
1.12598e-05
2.23814e-06
1.11633e-05
2.06159e-06
1.10565e-05
1.88539e-06
1.09449e-05
1.71382e-06
1.08323e-05
1.54963e-06
1.07221e-05
1.39441e-06
1.06162e-05
1.24897e-06
1.05165e-05
1.11353e-06
1.04238e-05
9.87965e-07
1.03389e-05
8.71885e-07
1.02622e-05
7.64747e-07
1.01937e-05
6.65915e-07
1.01335e-05
5.74706e-07
1.00814e-05
4.90414e-07
1.00374e-05
4.12328e-07
1.00011e-05
3.39743e-07
9.97231e-06
2.71966e-07
9.95083e-06
2.0831e-07
9.93643e-06
1.48096e-07
9.92893e-06
9.06443e-08
9.92816e-06
3.5266e-08
9.93401e-06
-1.87486e-08
9.94639e-06
-7.2143e-08
9.96525e-06
-1.25712e-07
9.99057e-06
-1.80321e-07
1.00224e-05
-2.36927e-07
1.00606e-05
-2.96604e-07
1.01052e-05
-3.60568e-07
1.01561e-05
-4.30194e-07
1.02129e-05
-5.07034e-07
1.02751e-05
-5.92807e-07
1.03418e-05
-6.89363e-07
1.04116e-05
-7.98592e-07
1.04822e-05
-9.22259e-07
1.0551e-05
-1.06174e-06
1.06144e-05
-1.21768e-06
1.06684e-05
-1.3895e-06
1.0709e-05
-1.57509e-06
-1.7705e-06
1.07334e-05
1.00617e-05
3.46403e-07
1.02223e-05
9.93022e-07
1.04446e-05
1.54975e-06
1.06909e-05
1.99199e-06
1.09301e-05
2.31368e-06
1.11405e-05
2.52114e-06
1.131e-05
2.62832e-06
1.14341e-05
2.65276e-06
1.15139e-05
2.61256e-06
1.15536e-05
2.52448e-06
1.15593e-05
2.40292e-06
1.15378e-05
2.25967e-06
1.14954e-05
2.10396e-06
1.14381e-05
1.94278e-06
1.13707e-05
1.78122e-06
1.12974e-05
1.62287e-06
1.12217e-05
1.47014e-06
1.11461e-05
1.32456e-06
1.10726e-05
1.18699e-06
1.10028e-05
1.05779e-06
1.09377e-05
9.37009e-07
1.0878e-05
8.24418e-07
1.08243e-05
7.19643e-07
1.07768e-05
6.22195e-07
1.07357e-05
5.3151e-07
1.0701e-05
4.46983e-07
1.06728e-05
3.6798e-07
1.06509e-05
2.93852e-07
1.06353e-05
2.23938e-07
1.06258e-05
1.57569e-07
1.06224e-05
9.4065e-08
1.06249e-05
3.27279e-08
1.06334e-05
-2.71644e-08
1.06476e-05
-8.63692e-08
1.06676e-05
-1.45691e-07
1.06932e-05
-2.05998e-07
1.07245e-05
-2.68233e-07
1.07614e-05
-3.33435e-07
1.08036e-05
-4.02752e-07
1.08508e-05
-4.77444e-07
1.09027e-05
-5.58887e-07
1.09584e-05
-6.4855e-07
1.1017e-05
-7.47943e-07
1.10769e-05
-8.58527e-07
1.11362e-05
-9.81569e-07
1.11924e-05
-1.11793e-06
1.12425e-05
-1.26781e-06
1.12835e-05
-1.43045e-06
1.13123e-05
-1.60393e-06
-1.78509e-06
1.13269e-05
1.00509e-05
2.95459e-07
1.01877e-05
8.56297e-07
1.03845e-05
1.35293e-06
1.0613e-05
1.76347e-06
1.08478e-05
2.07889e-06
1.10691e-05
2.29982e-06
1.12638e-05
2.43366e-06
1.14246e-05
2.49196e-06
1.15491e-05
2.488e-06
1.16386e-05
2.43506e-06
1.16961e-05
2.34539e-06
1.17261e-05
2.22961e-06
1.17336e-05
2.09654e-06
1.17231e-05
1.95322e-06
1.16992e-05
1.80514e-06
1.16656e-05
1.65641e-06
1.16258e-05
1.51e-06
1.15823e-05
1.36802e-06
1.15375e-05
1.23183e-06
1.1493e-05
1.10226e-06
1.14503e-05
9.79754e-07
1.14103e-05
8.64409e-07
1.13738e-05
7.56116e-07
1.13414e-05
6.54596e-07
1.13135e-05
5.59455e-07
1.12902e-05
4.70213e-07
1.12719e-05
3.86334e-07
1.12585e-05
3.07238e-07
1.12501e-05
2.32313e-07
1.12468e-05
1.60924e-07
1.12484e-05
9.24104e-08
1.12551e-05
2.60889e-08
1.12667e-05
-3.87545e-08
1.12832e-05
-1.02869e-07
1.13045e-05
-1.67047e-07
1.13306e-05
-2.32134e-07
1.13615e-05
-2.99041e-07
1.13968e-05
-3.68749e-07
1.14363e-05
-4.42316e-07
1.14798e-05
-5.20878e-07
1.15265e-05
-6.05634e-07
1.15758e-05
-6.9782e-07
1.16265e-05
-7.98654e-07
1.16772e-05
-9.09252e-07
1.17262e-05
-1.0305e-06
1.17711e-05
-1.16292e-06
1.18098e-05
-1.30644e-06
1.18396e-05
-1.46026e-06
1.18584e-05
-1.6227e-06
-1.7912e-06
1.18645e-05
1.00428e-05
2.52667e-07
1.01605e-05
7.38637e-07
1.03349e-05
1.1785e-06
1.05449e-05
1.55348e-06
1.077e-05
1.85374e-06
1.09931e-05
2.07671e-06
1.12013e-05
2.22546e-06
1.13862e-05
2.3071e-06
1.15433e-05
2.33092e-06
1.16712e-05
2.30711e-06
1.1771e-05
2.24561e-06
1.1845e-05
2.15561e-06
1.18965e-05
2.04509e-06
1.19289e-05
1.9208e-06
1.19458e-05
1.7882e-06
1.19506e-05
1.65162e-06
1.19462e-05
1.51439e-06
1.19353e-05
1.37897e-06
1.192e-05
1.24714e-06
1.19021e-05
1.12009e-06
1.18833e-05
9.98599e-07
1.18646e-05
8.83064e-07
1.18471e-05
7.73625e-07
1.18315e-05
6.70216e-07
1.18183e-05
5.72614e-07
1.18081e-05
4.80479e-07
1.1801e-05
3.93385e-07
1.17974e-05
3.10838e-07
1.17974e-05
2.32294e-07
1.18012e-05
1.57167e-07
1.18088e-05
8.48388e-08
1.18202e-05
1.46553e-08
1.18355e-05
-5.40694e-08
1.18547e-05
-1.22057e-07
1.18777e-05
-1.9007e-07
1.19045e-05
-2.58916e-07
1.19349e-05
-3.29452e-07
1.19688e-05
-4.02586e-07
1.20057e-05
-4.79281e-07
1.20454e-05
-5.60543e-07
1.20872e-05
-6.47404e-07
1.21302e-05
-7.40892e-07
1.21736e-05
-8.41979e-07
1.22158e-05
-9.5151e-07
1.22554e-05
-1.0701e-06
1.22905e-05
-1.19802e-06
1.23191e-05
-1.33507e-06
1.23394e-05
-1.48047e-06
1.23494e-05
-1.63276e-06
-1.78987e-06
1.23481e-05
1.00365e-05
2.16166e-07
1.01388e-05
6.36356e-07
1.0294e-05
1.02333e-06
1.04861e-05
1.36131e-06
1.06991e-05
1.64074e-06
1.09184e-05
1.85743e-06
1.11321e-05
2.01176e-06
1.13315e-05
2.10765e-06
1.15111e-05
2.15134e-06
1.16679e-05
2.15031e-06
1.18011e-05
2.11243e-06
1.19114e-05
2.04531e-06
1.20006e-05
1.95595e-06
1.20709e-05
1.85048e-06
1.2125e-05
1.73411e-06
1.21655e-05
1.61113e-06
1.21949e-05
1.48497e-06
1.22155e-05
1.35833e-06
1.22294e-05
1.23321e-06
1.22384e-05
1.1111e-06
1.2244e-05
9.9302e-07
1.22475e-05
8.79618e-07
1.22498e-05
7.71253e-07
1.2252e-05
6.68052e-07
1.22547e-05
5.69953e-07
1.22584e-05
4.76757e-07
1.22636e-05
3.88151e-07
1.22707e-05
3.03736e-07
1.228e-05
2.23045e-07
1.22916e-05
1.45556e-07
1.23057e-05
7.07032e-08
1.23225e-05
-2.12086e-09
1.2342e-05
-7.35601e-08
1.23642e-05
-1.44295e-07
1.23892e-05
-2.15042e-07
1.24168e-05
-2.86555e-07
1.2447e-05
-3.59629e-07
1.24795e-05
-4.3509e-07
1.2514e-05
-5.13801e-07
1.25501e-05
-5.96639e-07
1.25872e-05
-6.84484e-07
1.26245e-05
-7.78185e-07
1.2661e-05
-8.78512e-07
1.26956e-05
-9.86097e-07
1.27269e-05
-1.10136e-06
1.27533e-05
-1.22441e-06
1.27732e-05
-1.35497e-06
1.2785e-05
-1.49232e-06
1.27875e-05
-1.63521e-06
-1.78194e-06
1.27795e-05
1.00316e-05
1.84606e-07
1.01214e-05
5.46561e-07
1.02601e-05
8.8457e-07
1.04359e-05
1.18552e-06
1.0636e-05
1.44067e-06
1.08482e-05
1.64522e-06
1.1062e-05
1.79792e-06
1.12691e-05
1.90055e-06
1.14634e-05
1.95704e-06
1.1641e-05
1.97272e-06
1.17998e-05
1.95361e-06
1.19393e-05
1.90586e-06
1.20599e-05
1.83538e-06
1.21628e-05
1.74758e-06
1.22497e-05
1.6472e-06
1.23225e-05
1.53833e-06
1.23831e-05
1.42433e-06
1.24335e-05
1.30793e-06
1.24754e-05
1.19129e-06
1.25105e-05
1.07603e-06
1.25402e-05
9.63358e-07
1.25657e-05
8.54109e-07
1.25881e-05
7.48814e-07
1.26084e-05
6.47758e-07
1.26273e-05
5.51025e-07
1.26456e-05
4.5854e-07
1.26636e-05
3.70101e-07
1.26819e-05
2.85404e-07
1.27009e-05
2.04062e-07
1.27208e-05
1.25624e-07
1.2742e-05
4.95852e-08
1.27645e-05
-2.46058e-08
1.27884e-05
-9.75402e-08
1.2814e-05
-1.69845e-07
1.28411e-05
-2.42183e-07
1.28698e-05
-3.15244e-07
1.28999e-05
-3.8975e-07
1.29313e-05
-4.66445e-07
1.29636e-05
-5.46088e-07
1.29964e-05
-6.29439e-07
1.30291e-05
-7.1724e-07
1.30611e-05
-8.10185e-07
1.30915e-05
-9.0888e-07
1.31192e-05
-1.01379e-06
1.3143e-05
-1.1252e-06
1.31617e-05
-1.24311e-06
1.3174e-05
-1.36721e-06
1.31785e-05
-1.49684e-06
1.31742e-05
-1.63095e-06
-1.76812e-06
1.31604e-05
1.00276e-05
1.56974e-07
1.01072e-05
4.66953e-07
1.02321e-05
7.59697e-07
1.03932e-05
1.02439e-06
1.05806e-05
1.25334e-06
1.07841e-05
1.44168e-06
1.09947e-05
1.58732e-06
1.12046e-05
1.69063e-06
1.14078e-05
1.75389e-06
1.15997e-05
1.78075e-06
1.17777e-05
1.7757e-06
1.19399e-05
1.74358e-06
1.20861e-05
1.68925e-06
1.22163e-05
1.61733e-06
1.23315e-05
1.53203e-06
1.24328e-05
1.43705e-06
1.25215e-05
1.33559e-06
1.25991e-05
1.23029e-06
1.26671e-05
1.12331e-06
1.27268e-05
1.01633e-06
1.27795e-05
9.1067e-07
1.28263e-05
8.07264e-07
1.28684e-05
7.0677e-07
1.29065e-05
6.09592e-07
1.29416e-05
5.15931e-07
1.29744e-05
4.2582e-07
1.30053e-05
3.39151e-07
1.3035e-05
2.55709e-07
1.30639e-05
1.75186e-07
1.30923e-05
9.72019e-08
1.31206e-05
2.13173e-08
1.31489e-05
-5.29581e-08
1.31775e-05
-1.26156e-07
1.32065e-05
-1.98844e-07
1.3236e-05
-2.71622e-07
1.32658e-05
-3.45112e-07
1.32961e-05
-4.1996e-07
1.33264e-05
-4.96824e-07
1.33567e-05
-5.76366e-07
1.33865e-05
-6.59234e-07
1.34153e-05
-7.4605e-07
1.34425e-05
-8.37375e-07
1.34673e-05
-9.33681e-07
1.34888e-05
-1.03531e-06
1.35061e-05
-1.14243e-06
1.3518e-05
-1.255e-06
1.35234e-05
-1.37268e-06
1.35215e-05
-1.49489e-06
1.35112e-05
-1.62071e-06
-1.749e-06
1.34921e-05
1.00245e-05
1.32492e-07
1.00958e-05
3.95683e-07
1.02089e-05
6.46519e-07
1.03572e-05
8.76156e-07
1.05326e-05
1.07796e-06
1.07269e-05
1.24736e-06
1.09323e-05
1.38192e-06
1.11418e-05
1.48113e-06
1.13495e-05
1.54615e-06
1.15509e-05
1.57937e-06
1.17426e-05
1.58404e-06
1.19223e-05
1.56388e-06
1.20887e-05
1.5228e-06
1.22414e-05
1.46465e-06
1.23804e-05
1.39304e-06
1.25062e-05
1.31125e-06
1.26196e-05
1.22219e-06
1.27216e-05
1.12832e-06
1.28132e-05
1.03171e-06
1.28955e-05
9.34022e-07
1.29696e-05
8.36579e-07
1.30365e-05
7.40376e-07
1.30971e-05
6.46137e-07
1.31523e-05
5.54343e-07
1.3203e-05
4.65276e-07
1.32498e-05
3.7905e-07
1.32933e-05
2.95638e-07
1.33341e-05
2.14899e-07
1.33727e-05
1.36598e-07
1.34095e-05
6.04212e-08
1.34448e-05
-1.40065e-08
1.34789e-05
-8.71126e-08
1.35121e-05
-1.59367e-07
1.35446e-05
-2.31274e-07
1.35763e-05
-3.03365e-07
1.36074e-05
-3.76196e-07
1.36378e-05
-4.50334e-07
1.36673e-05
-5.26352e-07
1.36958e-05
-6.04819e-07
1.37228e-05
-6.86284e-07
1.3748e-05
-7.71259e-07
1.37708e-05
-8.60195e-07
1.37906e-05
-9.53456e-07
1.38066e-05
-1.05129e-06
1.38179e-05
-1.15378e-06
1.38238e-05
-1.26083e-06
1.38232e-05
-1.37214e-06
1.38155e-05
-1.48716e-06
1.37999e-05
-1.60512e-06
-1.72504e-06
1.37759e-05
1.00219e-05
1.10546e-07
1.00864e-05
3.31236e-07
1.01898e-05
5.43133e-07
1.03269e-05
7.39056e-07
1.04914e-05
9.13413e-07
1.06767e-05
1.06211e-06
1.08759e-05
1.18265e-06
1.1083e-05
1.27407e-06
1.12924e-05
1.33679e-06
1.14994e-05
1.37227e-06
1.17007e-05
1.38282e-06
1.18933e-05
1.37123e-06
1.20756e-05
1.34056e-06
1.22463e-05
1.29394e-06
1.24049e-05
1.23442e-06
1.25513e-05
1.1648e-06
1.26859e-05
1.08763e-06
1.28091e-05
1.00514e-06
1.29216e-05
9.1923e-07
1.30241e-05
8.31468e-07
1.31176e-05
7.43124e-07
1.32028e-05
6.55184e-07
1.32805e-05
5.68386e-07
1.33516e-05
4.83247e-07
1.34168e-05
4.00096e-07
1.34767e-05
3.191e-07
1.35321e-05
2.4029e-07
1.35834e-05
1.63584e-07
1.36312e-05
8.88074e-08
1.36759e-05
1.57075e-08
1.37179e-05
-5.60312e-08
1.37576e-05
-1.26775e-07
1.37952e-05
-1.96933e-07
1.38308e-05
-2.66946e-07
1.38648e-05
-3.3728e-07
1.3897e-05
-4.08417e-07
1.39275e-05
-4.8085e-07
1.39562e-05
-5.55072e-07
1.3983e-05
-6.31565e-07
1.40075e-05
-7.10785e-07
1.40294e-05
-7.93151e-07
1.40482e-05
-8.79018e-07
1.40634e-05
-9.6866e-07
1.40743e-05
-1.06225e-06
1.40804e-05
-1.15981e-06
1.40808e-05
-1.26122e-06
1.40748e-05
-1.36618e-06
1.40619e-05
-1.47422e-06
1.40414e-05
-1.58466e-06
-1.69667e-06
1.4013e-05
1.00199e-05
9.06421e-08
1.00788e-05
2.72354e-07
1.0174e-05
4.47873e-07
1.03017e-05
6.11439e-07
1.04566e-05
7.58433e-07
1.06334e-05
8.8532e-07
1.08263e-05
9.89755e-07
1.10298e-05
1.07059e-06
1.12388e-05
1.12777e-06
1.1449e-05
1.16214e-06
1.16565e-05
1.17527e-06
1.18585e-05
1.16921e-06
1.20528e-05
1.14633e-06
1.22376e-05
1.10909e-06
1.24121e-05
1.05997e-06
1.25755e-05
1.00133e-06
1.27278e-05
9.35341e-07
1.2869e-05
8.63926e-07
1.29995e-05
7.88769e-07
1.31197e-05
7.11286e-07
1.32301e-05
6.32642e-07
1.33316e-05
5.53759e-07
1.34246e-05
4.75345e-07
1.35099e-05
3.97912e-07
1.35882e-05
3.21798e-07
1.36601e-05
2.47197e-07
1.37263e-05
1.74176e-07
1.37872e-05
1.02694e-07
1.38433e-05
3.2624e-08
1.38953e-05
-3.62372e-08
1.39434e-05
-1.04151e-07
1.39881e-05
-1.71429e-07
1.40295e-05
-2.38419e-07
1.40681e-05
-3.05502e-07
1.41039e-05
-3.73078e-07
1.4137e-05
-4.41562e-07
1.41676e-05
-5.11374e-07
1.41954e-05
-5.82929e-07
1.42205e-05
-6.5663e-07
1.42426e-05
-7.32849e-07
1.42613e-05
-8.11922e-07
1.42764e-05
-8.94123e-07
1.42874e-05
-9.79652e-07
1.42938e-05
-1.06861e-06
1.4295e-05
-1.161e-06
1.42904e-05
-1.25666e-06
1.42796e-05
-1.35532e-06
1.42619e-05
-1.45654e-06
1.4237e-05
-1.55974e-06
-1.6642e-06
1.42045e-05
1.00183e-05
7.237e-08
1.00727e-05
2.17968e-07
1.01613e-05
3.59274e-07
1.02809e-05
4.9175e-07
1.04277e-05
6.11675e-07
1.05969e-05
7.16106e-07
1.07837e-05
8.02977e-07
1.09832e-05
8.71129e-07
1.11907e-05
9.20259e-07
1.1402e-05
9.50798e-07
1.16135e-05
9.63779e-07
1.1822e-05
9.60672e-07
1.20251e-05
9.43239e-07
1.22208e-05
9.13394e-07
1.24077e-05
8.73093e-07
1.25848e-05
8.24234e-07
1.27515e-05
7.68599e-07
1.29077e-05
7.07803e-07
1.30532e-05
6.4327e-07
1.31882e-05
5.76216e-07
1.33132e-05
5.07657e-07
1.34286e-05
4.38412e-07
1.35348e-05
3.69114e-07
1.36325e-05
3.00232e-07
1.37222e-05
2.32088e-07
1.38045e-05
1.64872e-07
1.388e-05
9.8664e-08
1.39493e-05
3.34477e-08
1.40128e-05
-3.08726e-08
1.4071e-05
-9.44593e-08
1.41244e-05
-1.57529e-07
1.41733e-05
-2.20343e-07
1.42181e-05
-2.83197e-07
1.4259e-05
-3.46411e-07
1.42962e-05
-4.10325e-07
1.43299e-05
-4.75289e-07
1.43602e-05
-5.41653e-07
1.43871e-05
-6.09761e-07
1.44104e-05
-6.79941e-07
1.443e-05
-7.52493e-07
1.44458e-05
-8.27676e-07
1.44573e-05
-9.05697e-07
1.44644e-05
-9.86692e-07
1.44665e-05
-1.07071e-06
1.44632e-05
-1.15772e-06
1.44541e-05
-1.24755e-06
1.44387e-05
-1.33994e-06
1.44167e-05
-1.43449e-06
1.43876e-05
-1.53069e-06
-1.62792e-06
1.43513e-05
1.0017e-05
5.5384e-08
1.00678e-05
1.67155e-07
1.0151e-05
2.76028e-07
1.02643e-05
3.78533e-07
1.04042e-05
4.71775e-07
1.05669e-05
5.53408e-07
1.07481e-05
6.21717e-07
1.09436e-05
6.7566e-07
1.1149e-05
7.14835e-07
1.13604e-05
7.39418e-07
1.15741e-05
7.50057e-07
1.1787e-05
7.4777e-07
1.19964e-05
7.33829e-07
1.22002e-05
7.09659e-07
1.23965e-05
6.76741e-07
1.25842e-05
6.36545e-07
1.27623e-05
5.90466e-07
1.29304e-05
5.39786e-07
1.3088e-05
4.8565e-07
1.32351e-05
4.29046e-07
1.3372e-05
3.70807e-07
1.34988e-05
3.1161e-07
1.36159e-05
2.51985e-07
1.37238e-05
1.92327e-07
1.3823e-05
1.3291e-07
1.3914e-05
7.38991e-08
1.39973e-05
1.5366e-08
1.40734e-05
-4.26983e-08
1.41429e-05
-1.00371e-07
1.42062e-05
-1.57785e-07
1.42638e-05
-2.15123e-07
1.43161e-05
-2.726e-07
1.43634e-05
-3.30465e-07
1.44059e-05
-3.88985e-07
1.44441e-05
-4.48441e-07
1.44779e-05
-5.09121e-07
1.45075e-05
-5.71314e-07
1.45331e-05
-6.35295e-07
1.45545e-05
-7.01325e-07
1.45716e-05
-7.69637e-07
1.45844e-05
-8.40423e-07
1.45925e-05
-9.13831e-07
1.45957e-05
-9.89942e-07
1.45938e-05
-1.06877e-06
1.45863e-05
-1.15024e-06
1.45729e-05
-1.23418e-06
1.45533e-05
-1.32034e-06
1.45272e-05
-1.40836e-06
1.44943e-05
-1.49777e-06
-1.58804e-06
1.44544e-05
1.0016e-05
3.93841e-08
1.00641e-05
1.19101e-07
1.01431e-05
1.96953e-07
1.02512e-05
2.70419e-07
1.03856e-05
3.37373e-07
1.0543e-05
3.96057e-07
1.07196e-05
4.45151e-07
1.09114e-05
4.83806e-07
1.11146e-05
5.11632e-07
1.13254e-05
5.2866e-07
1.15402e-05
5.35274e-07
1.17558e-05
5.32139e-07
1.19695e-05
5.20125e-07
1.21789e-05
5.00227e-07
1.23822e-05
4.73503e-07
1.25777e-05
4.41013e-07
1.27644e-05
4.03778e-07
1.29414e-05
3.62742e-07
1.31083e-05
3.18756e-07
1.32648e-05
2.7256e-07
1.34108e-05
2.24778e-07
1.35465e-05
1.75921e-07
1.36721e-05
1.26388e-07
1.3788e-05
7.64755e-08
1.38945e-05
2.63878e-08
1.39922e-05
-2.37559e-08
1.40814e-05
-7.39093e-08
1.41628e-05
-1.24089e-07
1.42368e-05
-1.74367e-07
1.43039e-05
-2.24858e-07
1.43645e-05
-2.75714e-07
1.4419e-05
-3.27117e-07
1.44678e-05
-3.79271e-07
1.45112e-05
-4.32395e-07
1.45495e-05
-4.86717e-07
1.45828e-05
-5.42469e-07
1.46114e-05
-5.99877e-07
1.46353e-05
-6.5916e-07
1.46545e-05
-7.20513e-07
1.46689e-05
-7.84109e-07
1.46786e-05
-8.50084e-07
1.46833e-05
-9.18528e-07
1.46828e-05
-9.8948e-07
1.4677e-05
-1.06291e-06
1.46655e-05
-1.13873e-06
1.4648e-05
-1.21676e-06
1.46244e-05
-1.29675e-06
1.45944e-05
-1.37836e-06
1.45579e-05
-1.46119e-06
-1.54474e-06
1.45146e-05
1.00153e-05
2.41038e-08
1.00613e-05
7.3071e-08
1.01373e-05
1.20959e-07
1.02416e-05
1.66114e-07
1.03719e-05
2.07129e-07
1.05251e-05
2.42825e-07
1.06979e-05
2.72299e-07
1.08868e-05
2.94948e-07
1.1088e-05
3.10462e-07
1.12978e-05
3.18809e-07
1.15129e-05
3.20189e-07
1.173e-05
3.14991e-07
1.19464e-05
3.03745e-07
1.21596e-05
2.87071e-07
1.23675e-05
2.65636e-07
1.25684e-05
2.40116e-07
1.2761e-05
2.11165e-07
1.29443e-05
1.79393e-07
1.31177e-05
1.45348e-07
1.32808e-05
1.09507e-07
1.34333e-05
7.22708e-08
1.35752e-05
3.39638e-08
1.37068e-05
-5.1638e-09
1.38282e-05
-4.4932e-08
1.39398e-05
-8.5225e-08
1.4042e-05
-1.25985e-07
1.41353e-05
-1.67204e-07
1.42202e-05
-2.08921e-07
1.4297e-05
-2.51208e-07
1.43663e-05
-2.94173e-07
1.44286e-05
-3.37947e-07
1.44841e-05
-3.8268e-07
1.45334e-05
-4.28539e-07
1.45767e-05
-4.75699e-07
1.46143e-05
-5.2434e-07
1.46465e-05
-5.74641e-07
1.46734e-05
-6.26773e-07
1.46951e-05
-6.80897e-07
1.47118e-05
-7.37154e-07
1.47233e-05
-7.95661e-07
1.47297e-05
-8.565e-07
1.47309e-05
-9.19716e-07
1.47267e-05
-9.85305e-07
1.4717e-05
-1.05321e-06
1.47016e-05
-1.12331e-06
1.46803e-05
-1.19543e-06
1.46529e-05
-1.26932e-06
1.46192e-05
-1.34467e-06
1.45791e-05
-1.4211e-06
-1.49818e-06
1.45325e-05
1.00148e-05
9.29912e-09
1.00595e-05
2.83846e-08
1.01334e-05
4.70235e-08
1.02352e-05
6.43747e-08
1.03626e-05
7.97189e-08
1.0513e-05
9.24475e-08
1.06832e-05
1.02085e-07
1.08698e-05
1.08303e-07
1.10694e-05
1.10919e-07
1.12783e-05
1.09883e-07
1.14932e-05
1.05265e-07
1.1711e-05
9.72283e-08
1.19287e-05
8.60051e-08
1.21439e-05
7.1875e-08
1.23544e-05
5.51412e-08
1.25584e-05
3.61119e-08
1.27545e-05
1.50842e-08
1.29415e-05
-7.66756e-09
1.31188e-05
-3.19002e-08
1.32857e-05
-5.74073e-08
1.3442e-05
-8.40218e-08
1.35876e-05
-1.11617e-07
1.37225e-05
-1.40105e-07
1.3847e-05
-1.69434e-07
1.39614e-05
-1.99589e-07
1.4066e-05
-2.30583e-07
1.41612e-05
-2.62458e-07
1.42476e-05
-2.9528e-07
1.43255e-05
-3.29134e-07
1.43955e-05
-3.64123e-07
1.44579e-05
-4.00362e-07
1.45132e-05
-4.37978e-07
1.45618e-05
-4.77103e-07
1.46039e-05
-5.17871e-07
1.464e-05
-5.60418e-07
1.46702e-05
-6.04873e-07
1.46948e-05
-6.51359e-07
1.47139e-05
-6.99983e-07
1.47276e-05
-7.50835e-07
1.47359e-05
-8.0398e-07
1.47389e-05
-8.59456e-07
1.47364e-05
-9.17262e-07
1.47285e-05
-9.7736e-07
1.47149e-05
-1.03966e-06
1.46956e-05
-1.10404e-06
1.46705e-05
-1.17029e-06
1.46394e-05
-1.23818e-06
1.46021e-05
-1.30741e-06
1.45586e-05
-1.37764e-06
-1.44847e-06
1.45089e-05
1.00146e-05
-5.25925e-09
1.00585e-05
-1.5602e-08
1.01314e-05