/*--------------------------------*- C++ -*----------------------------------*\
| =========                 |                                                 |
| \\      /  F ield         | OpenFOAM: The Open Source CFD Toolbox           |
|  \\    /   O peration     | Version:  2306                                  |
|   \\  /    A nd           | Website:  www.openfoam.com                      |
|    \\/     M anipulation  |                                                 |
\*---------------------------------------------------------------------------*/
FoamFile
{
    version     2.0;
    format      ascii;
    arch        "LSB;label=32;scalar=64";
    class       volScalarField;
    location    "0.63";
    object      p;
}
// * * * * * * * * * * * * * * * * * * * * * * * * * * * * * * * * * * * * * //

dimensions      [0 2 -2 0 0 0 0];

internalField   nonuniform List<scalar> 
47500
(
14.2636
8.31622
5.39832
4.19507
3.55693
3.16771
2.91736
2.74435
2.61611
2.51602
2.4349
2.36714
2.30915
2.25847
2.21338
2.17262
2.13526
2.10057
2.068
2.03712
2.00758
1.9791
1.95144
1.92443
1.89791
1.87174
1.84582
1.82006
1.79439
1.76872
1.74302
1.71724
1.69134
1.66528
1.63906
1.61267
1.58611
1.55941
1.53263
1.50585
1.47924
1.45305
1.42766
1.40369
1.38192
1.36305
1.3475
1.33364
1.28846
1.04332
9.49516
7.11988
5.4917
4.53472
3.89697
3.45618
3.1492
2.92827
2.76275
2.63429
2.53148
2.44694
2.37574
2.3145
2.26084
2.21303
2.16979
2.13017
2.09341
2.05894
2.0263
1.99512
1.96511
1.93602
1.90765
1.87983
1.85243
1.82532
1.79841
1.7716
1.74483
1.71802
1.69113
1.66409
1.63688
1.60945
1.58179
1.55385
1.52564
1.49713
1.46832
1.43918
1.40963
1.37947
1.34808
1.3139
1.27377
1.22205
1.13982
0.970505
6.67611
5.93532
5.12726
4.46312
3.94457
3.54972
3.25209
3.02537
2.84928
2.7096
2.59641
2.50277
2.42376
2.35587
2.29656
2.24392
2.19655
2.15336
2.11352
2.07636
2.04137
2.00812
1.97628
1.94556
1.91573
1.88661
1.85801
1.82982
1.8019
1.77416
1.7465
1.71885
1.69113
1.66327
1.63522
1.60691
1.57829
1.54928
1.51982
1.4898
1.45911
1.42752
1.3947
1.36006
1.32255
1.28023
1.22993
1.16701
1.08274
0.962392
5.23436
5.05269
4.64957
4.21699
3.83688
3.52096
3.26397
3.05625
2.88769
2.7496
2.63506
2.53871
2.4565
2.38533
2.32286
2.2673
2.21726
2.17166
2.12965
2.09054
2.0538
2.01897
1.98571
1.95371
1.92272
1.89253
1.86297
1.83388
1.80513
1.7766
1.7482
1.71984
1.69141
1.66285
1.63408
1.60502
1.57557
1.54566
1.51515
1.48391
1.45173
1.41834
1.38331
1.34602
1.30549
1.26028
1.20834
1.14717
1.07332
0.983938
4.39931
4.41403
4.22394
3.95442
3.68736
3.44496
3.23312
3.05197
2.8984
2.76821
2.65732
2.56211
2.47961
2.40736
2.34342
2.28621
2.23448
2.18723
2.14364
2.10305
2.06493
2.02883
1.99439
1.96131
1.92932
1.89821
1.86779
1.83791
1.80842
1.77919
1.75012
1.7211
1.69205
1.66286
1.63344
1.60371
1.57356
1.54287
1.5115
1.4793
1.44602
1.41139
1.375
1.33632
1.29462
1.24898
1.19834
1.14176
1.07856
1.00979
3.87574
3.95344
3.87495
3.71218
3.52871
3.34708
3.17731
3.02421
2.88878
2.76997
2.66593
2.57461
2.49406
2.42255
2.35857
2.30085
2.24833
2.20013
2.15554
2.11392
2.07479
2.03772
2.00236
1.96839
1.93558
1.90369
1.87254
1.84197
1.81183
1.78199
1.75233
1.72275
1.69314
1.66341
1.63345
1.60317
1.57244
1.54116
1.50916
1.47629
1.44234
1.40703
1.37006
1.33102
1.28945
1.24486
1.19688
1.14543
1.09111
1.03592
3.53084
3.61958
3.59625
3.50001
3.37565
3.24166
3.10817
2.98156
2.86486
2.75896
2.66362
2.57799
2.50103
2.43165
2.3688
2.31154
2.25903
2.21054
2.16547
2.12326
2.08348
2.04572
2.00967
1.97503
1.94155
1.90903
1.87728
1.84614
1.81545
1.78509
1.75493
1.72488
1.69481
1.66463
1.63424
1.60354
1.5724
1.54071
1.50833
1.47511
1.44087
1.40539
1.36846
1.32983
1.28925
1.24657
1.20181
1.15534
1.10813
1.06209
3.29073
3.37298
3.37576
3.32018
3.23652
3.13845
3.03462
2.93129
2.83224
2.73938
2.65344
2.57448
2.50213
2.43584
2.37499
2.31893
2.26707
2.21883
2.17372
2.1313
2.09117
2.053
2.01647
1.98134
1.94737
1.91435
1.88211
1.8505
1.81936
1.78857
1.75801
1.72756
1.69714
1.66662
1.63591
1.60491
1.57352
1.54161
1.50908
1.47578
1.44159
1.40636
1.36994
1.33221
1.29312
1.2527
1.2112
1.16916
1.12756
1.08794
3.11488
3.18644
3.20101
3.17012
3.11412
3.04254
2.96216
2.87844
2.79515
2.71458
2.63801
2.56604
2.49883
2.43623
2.37796
2.32367
2.27293
2.22538
2.18061
2.13829
2.09809
2.05972
2.02292
1.98746
1.95312
1.91974
1.88712
1.85513
1.82364
1.7925
1.76162
1.73088
1.70018
1.66942
1.63851
1.60735
1.57585
1.5439
1.51141
1.47827
1.4444
1.4097
1.3741
1.33759
1.3002
1.26212
1.22366
1.18541
1.14822
1.11327
2.98102
3.04213
3.06147
3.04556
3.00824
2.95599
2.89382
2.8262
2.7565
2.68705
2.61935
2.55431
2.4924
2.4338
2.37848
2.32631
2.27708
2.23053
2.1864
2.14444
2.1044
2.06603
2.02912
1.99348
1.95892
1.92527
1.89238
1.86011
1.82834
1.79695
1.76582
1.73487
1.70399
1.67308
1.64207
1.61086
1.57938
1.54753
1.51525
1.48246
1.4491
1.41513
1.38055
1.3454
1.30978
1.27394
1.23821
1.20315
1.16946
1.13803
2.8762
2.92832
2.949
2.94216
2.91749
2.87927
2.8311
2.77648
2.71827
2.65861
2.59903
2.54057
2.48388
2.42937
2.37719
2.32738
2.27989
2.2346
2.19134
2.14994
2.11024
2.07204
2.03517
1.99948
1.9648
1.93099
1.89791
1.86545
1.83349
1.80191
1.77063
1.73953
1.70855
1.67759
1.64657
1.61541
1.58406
1.55244
1.52049
1.48818
1.45548
1.42237
1.3889
1.35515
1.32126
1.28749
1.25418
1.22178
1.19089
1.16217
2.79242
2.83711
2.85752
2.85618
2.84009
2.81205
2.77459
2.73037
2.68173
2.63053
2.5782
2.52582
2.47413
2.42363
2.37463
2.3273
2.28171
2.23783
2.19561
2.15494
2.11573
2.07783
2.04113
2.0055
1.9708
1.93692
1.90375
1.87117
1.83909
1.8074
1.77602
1.74486
1.71384
1.6829
1.65195
1.62094
1.5898
1.5585
1.52699
1.49526
1.46329
1.43111
1.39878
1.3664
1.33415
1.30226
1.27104
1.24089
1.21227
1.18567
2.72447
2.7631
2.78251
2.78448
2.77425
2.75363
2.72434
2.68839
2.64764
2.60365
2.55771
2.51083
2.46378
2.41712
2.37125
2.32643
2.2828
2.24044
2.19937
2.15955
2.12094
2.08347
2.04703
2.01155
1.97693
1.94306
1.90986
1.87724
1.8451
1.81336
1.78195
1.75079
1.71981
1.68894
1.65814
1.62733
1.5965
1.56558
1.53458
1.50347
1.47228
1.44105
1.40984
1.37879
1.34805
1.31783
1.28843
1.26016
1.23339
1.20851
2.66879
2.70248
2.72063
2.72456
2.71836
2.70315
2.68011
2.65072
2.61643
2.57853
2.53813
2.49615
2.45334
2.41029
2.36741
2.32504
2.28339
2.24259
2.20274
2.16385
2.12594
2.08896
2.05288
2.01763
1.98315
1.94937
1.91621
1.8836
1.85147
1.81975
1.78836
1.75725
1.72636
1.69564
1.66503
1.63449
1.604
1.57353
1.54306
1.51262
1.48222
1.45192
1.4218
1.39198
1.36261
1.33389
1.30605
1.27937
1.25414
1.23064
2.62287
2.65253
2.66936
2.67443
2.67099
2.65977
2.64152
2.61732
2.5883
2.5555
2.51986
2.4822
2.4432
2.40345
2.36339
2.32337
2.28365
2.24442
2.20581
2.1679
2.13073
2.09432
2.05866
2.02371
1.98944
1.9558
1.92274
1.8902
1.85813
1.82647
1.79516
1.76416
1.73341
1.70287
1.6725
1.64227
1.61216
1.58216
1.55227
1.52249
1.49288
1.46348
1.43439
1.4057
1.37757
1.35016
1.32368
1.29835
1.27439
1.25205
2.58488
2.61122
2.6268
2.63249
2.63098
2.62269
2.60811
2.58803
2.56329
2.53474
2.50315
2.46924
2.43364
2.39688
2.35941
2.32159
2.28372
2.24602
2.20865
2.17173
2.13534
2.09954
2.06433
2.02973
1.99572
1.96228
1.92937
1.89695
1.86499
1.83344
1.80225
1.7714
1.74083
1.71051
1.68042
1.65054
1.62084
1.59132
1.562
1.5329
1.50404
1.47551
1.44736
1.41972
1.39269
1.36644
1.34114
1.31695
1.29407
1.27268
2.55344
2.57707
2.5915
2.5975
2.59732
2.59122
2.57946
2.56263
2.54136
2.51632
2.48816
2.45748
2.42485
2.39076
2.35564
2.31986
2.28372
2.24747
2.2113
2.17536
2.13976
2.10458
2.06987
2.03565
2.00194
1.96873
1.93601
1.90376
1.87195
1.84054
1.80952
1.77885
1.7485
1.71844
1.68866
1.65913
1.62986
1.60084
1.57209
1.54364
1.51552
1.48779
1.46052
1.43382
1.40779
1.38256
1.35827
1.33507
1.3131
1.2925
2.52753
2.54894
2.56236
2.56846
2.56922
2.56473
2.55515
2.54088
2.52241
2.50027
2.47497
2.44705
2.41698
2.38524
2.35221
2.31828
2.28373
2.24883
2.2138
2.1788
2.14398
2.10942
2.07521
2.0414
2.00801
1.97507
1.94258
1.91052
1.8789
1.84768
1.81686
1.7864
1.75629
1.72652
1.69706
1.66792
1.63908
1.61056
1.58237
1.55454
1.52712
1.50014
1.47369
1.44785
1.42271
1.39837
1.37497
1.35261
1.33141
1.31149
2.50636
2.52595
2.53849
2.5446
2.54599
2.54271
2.53481
2.52256
2.50633
2.48655
2.46362
2.43801
2.41014
2.38042
2.34924
2.31693
2.28382
2.25016
2.21618
2.18207
2.14798
2.11403
2.08032
2.04692
2.01388
1.98122
1.94898
1.91715
1.88574
1.85474
1.82414
1.79393
1.76409
1.73462
1.70551
1.67675
1.64836
1.62033
1.59269
1.56546
1.53869
1.51242
1.48671
1.46164
1.43729
1.41375
1.39112
1.36949
1.34896
1.32961
2.48932
2.50743
2.51923
2.52528
2.52712
2.52474
2.51811
2.50744
2.49299
2.47511
2.45412
2.43042
2.40439
2.37639
2.34678
2.3159
2.28405
2.25149
2.21845
2.18515
2.15175
2.11837
2.08515
2.05216
2.01946
1.98711
1.95513
1.92355
1.89238
1.86162
1.83126
1.80132
1.77177
1.74262
1.71387
1.68551
1.65755
1.63001
1.60289
1.57624
1.55008
1.52447
1.49945
1.47508
1.45144
1.4286
1.40665
1.38565
1.36569
1.34683
2.47593
2.49287
2.50406
2.51003
2.51217
2.51045
2.50479
2.49533
2.48227
2.46589
2.44646
2.4243
2.39977
2.37319
2.34491
2.31523
2.28445
2.25284
2.22064
2.18806
2.15527
2.12243
2.08966
2.05706
2.0247
1.99265
1.96096
1.92964
1.89872
1.86822
1.83813
1.80847
1.77923
1.75042
1.72203
1.69407
1.66654
1.63947
1.61287
1.58677
1.56119
1.53618
1.51178
1.48805
1.46505
1.44284
1.42148
1.40103
1.38157
1.36313
2.46584
2.48187
2.49258
2.49846
2.50081
2.49956
2.49461
2.48606
2.47407
2.45883
2.4406
2.41966
2.39632
2.37088
2.34366
2.31495
2.28506
2.25425
2.22275
2.19079
2.15854
2.12617
2.09381
2.06158
2.02955
1.9978
1.96638
1.93533
1.90468
1.87445
1.84465
1.81529
1.78637
1.7579
1.72988
1.70232
1.67523
1.64862
1.62251
1.59692
1.57189
1.54744
1.52362
1.50048
1.47805
1.45639
1.43555
1.4156
1.39656
1.37848
2.45878
2.47415
2.48449
2.49029
2.49277
2.49185
2.48741
2.47951
2.46828
2.45388
2.43654
2.4165
2.39405
2.36946
2.34305
2.31511
2.28591
2.25573
2.2248
2.19334
2.16154
2.12958
2.09758
2.06568
2.03395
2.00249
1.97135
1.94058
1.9102
1.88025
1.85075
1.82169
1.7931
1.76498
1.73734
1.71018
1.68351
1.65735
1.63172
1.60663
1.58211
1.55818
1.53489
1.51227
1.49036
1.4692
1.44883
1.4293
1.41064
1.39288
2.45456
2.46949
2.47958
2.48532
2.48788
2.48716
2.48304
2.47557
2.46483
2.451
2.43424
2.41481
2.39296
2.36897
2.34313
2.31572
2.28702
2.25729
2.22678
2.19571
2.16427
2.13263
2.10094
2.06933
2.03788
2.00669
1.97582
1.94532
1.91522
1.88556
1.85635
1.82762
1.79936
1.77159
1.74433
1.71756
1.69132
1.6656
1.64042
1.6158
1.59176
1.56832
1.54552
1.52338
1.50194
1.48123
1.46128
1.44212
1.42379
1.4063
2.45305
2.46775
2.47772
2.48342
2.48601
2.48539
2.48143
2.47417
2.46369
2.45014
2.4337
2.41459
2.39307
2.36941
2.34388
2.31678
2.28838
2.25894
2.22871
2.1979
2.16671
2.13533
2.10388
2.07251
2.04131
2.01037
1.97975
1.94951
1.91969
1.89032
1.86142
1.83301
1.80509
1.77768
1.75079
1.72442
1.69858
1.67329
1.64855
1.62438
1.60079
1.57781
1.55546
1.53377
1.51275
1.49244
1.47286
1.45404
1.436
1.41875
2.4542
2.46887
2.47882
2.48451
2.4871
2.48648
2.48253
2.47528
2.46482
2.4513
2.4349
2.41584
2.39437
2.37078
2.34533
2.31832
2.29002
2.26069
2.23058
2.19991
2.16887
2.13765
2.10638
2.0752
2.04421
2.01349
1.98312
1.95314
1.92359
1.89451
1.86592
1.83783
1.81025
1.7832
1.75668
1.7307
1.70527
1.68038
1.65606
1.63232
1.60916
1.58661
1.56468
1.54339
1.52276
1.50281
1.48357
1.46505
1.44726
1.43023
2.45799
2.47284
2.48289
2.48859
2.49114
2.49042
2.48633
2.47889
2.46822
2.45447
2.43784
2.41855
2.39687
2.37308
2.34746
2.32032
2.29192
2.26253
2.23239
2.20173
2.17074
2.1396
2.10844
2.0774
2.04658
2.01606
1.98591
1.95617
1.92689
1.8981
1.86981
1.84205
1.81481
1.78812
1.76197
1.73637
1.71133
1.68684
1.66293
1.63959
1.61683
1.59468
1.57314
1.55222
1.53195
1.51233
1.49339
1.47514
1.45758
1.44073
2.46448
2.47972
2.48998
2.49573
2.49819
2.49727
2.49287
2.48504
2.47391
2.45967
2.44252
2.42272
2.40055
2.3763
2.35028
2.32278
2.29408
2.26445
2.23414
2.20336
2.17231
2.14116
2.11005
2.07911
2.04842
2.01807
1.98811
1.95861
1.92959
1.90108
1.8731
1.84566
1.81876
1.79242
1.76664
1.74141
1.71675
1.69265
1.66912
1.64617
1.6238
1.60201
1.58083
1.56026
1.54031
1.521
1.50232
1.48431
1.46695
1.45026
2.47378
2.48965
2.50024
2.50604
2.50836
2.50712
2.50223
2.49378
2.48194
2.46691
2.44896
2.42835
2.40541
2.38044
2.35376
2.32568
2.29648
2.26645
2.23581
2.2048
2.17359
2.14235
2.11122
2.08032
2.04972
2.01951
1.98974
1.96046
1.93169
1.90346
1.87578
1.84866
1.8221
1.7961
1.77068
1.74582
1.72152
1.69779
1.67464
1.65205
1.63003
1.6086
1.58775
1.5675
1.54785
1.5288
1.51037
1.49257
1.47539
1.45885
2.48609
2.50281
2.51385
2.51973
2.52184
2.52012
2.51453
2.50521
2.49236
2.47625
2.45717
2.43545
2.41143
2.38546
2.35788
2.32899
2.29911
2.26849
2.23739
2.20602
2.17456
2.14316
2.11195
2.08104
2.0505
2.02041
1.99081
1.96173
1.93321
1.90524
1.87786
1.85105
1.82482
1.79917
1.77409
1.74958
1.72565
1.70227
1.67947
1.65722
1.63555
1.61444
1.5939
1.57394
1.55455
1.53576
1.51755
1.49993
1.48291
1.46649
2.50165
2.5195
2.53111
2.53706
2.53886
2.53649
2.52996
2.51945
2.50526
2.48772
2.46717
2.444
2.41861
2.39135
2.3626
2.33268
2.30191
2.27056
2.23886
2.20702
2.17521
2.14358
2.11224
2.08128
2.05077
2.02077
1.99132
1.96244
1.93415
1.90645
1.87935
1.85285
1.82695
1.80163
1.77689
1.75272
1.72913
1.7061
1.68362
1.66171
1.64035
1.61954
1.59929
1.57959
1.56045
1.54188
1.52386
1.50642
1.48954
1.47323
2.52082
2.54009
2.55242
2.55841
2.55976
2.5565
2.54871
2.53667
2.52075
2.50138
2.47898
2.454
2.42689
2.39805
2.36787
2.33671
2.30486
2.27261
2.24019
2.20778
2.17554
2.14362
2.11209
2.08105
2.05055
2.02063
1.99131
1.96261
1.93455
1.90711
1.88029
1.85409
1.8285
1.8035
1.77909
1.75526
1.73199
1.70928
1.68712
1.66551
1.64444
1.62391
1.60392
1.58447
1.56555
1.54718
1.52934
1.51204
1.49529
1.47907
2.54406
2.5651
2.57828
2.58425
2.58495
2.5805
2.57106
2.55704
2.53894
2.51728
2.49259
2.46541
2.43622
2.40549
2.37363
2.34099
2.30789
2.2746
2.24133
2.20826
2.17554
2.14326
2.11152
2.08037
2.04985
2.01999
1.9908
1.96228
1.93443
1.90724
1.8807
1.85479
1.8295
1.80481
1.78072
1.7572
1.73424
1.71184
1.68998
1.66865
1.64785
1.62758
1.60783
1.5886
1.56988
1.55169
1.534
1.51684
1.50018
1.48404
2.57196
2.59519
2.60935
2.61519
2.61496
2.60891
2.59732
2.58078
2.55994
2.53547
2.50801
2.47818
2.44654
2.41359
2.37977
2.34545
2.31093
2.27646
2.24225
2.20845
2.17517
2.14251
2.11052
2.07924
2.04869
2.01888
1.98981
1.96146
1.93382
1.90687
1.8806
1.85497
1.82998
1.8056
1.7818
1.75858
1.73592
1.7138
1.69221
1.67115
1.6506
1.63057
1.61103
1.592
1.57346
1.55542
1.53788
1.52082
1.50426
1.48818
2.60532
2.63121
2.64648
2.65201
2.65045
2.64224
2.62786
2.60812
2.58387
2.55596
2.52517
2.49221
2.45771
2.42222
2.38619
2.34997
2.31387
2.27812
2.24288
2.20829
2.17442
2.14135
2.1091
2.07768
2.04709
2.01733
1.98837
1.96019
1.93276
1.90605
1.88003
1.85468
1.82997
1.80587
1.78236
1.75943
1.73704
1.71519
1.69386
1.67304
1.65272
1.63289
1.61355
1.5947
1.57632
1.55842
1.54099
1.52403
1.50754
1.49152
2.64513
2.67429
2.69079
2.6957
2.69222
2.68109
2.66308
2.63928
2.61081
2.57873
2.54397
2.50736
2.46959
2.43122
2.39271
2.35442
2.31661
2.27947
2.24315
2.20772
2.17325
2.13975
2.10723
2.07568
2.04506
2.01535
1.9865
1.95849
1.93126
1.90478
1.87902
1.85394
1.8295
1.80567
1.78244
1.75976
1.73763
1.71603
1.69493
1.67434
1.65422
1.63459
1.61543
1.59673
1.57849
1.5607
1.54337
1.52649
1.51006
1.49408
2.69277
2.72592
2.74372
2.74748
2.74124
2.72616
2.7034
2.67446
2.6408
2.60369
2.56426
2.52342
2.48193
2.44036
2.39915
2.35861
2.31898
2.2804
2.24296
2.20669
2.17161
2.1377
2.10492
2.07324
2.0426
2.01294
1.98422
1.95638
1.92936
1.90311
1.8776
1.85277
1.82859
1.80503
1.78205
1.75962
1.73773
1.71635
1.69547
1.67508
1.65515
1.63569
1.61667
1.59811
1.57999
1.56231
1.54506
1.52824
1.51186
1.49591
2.75005
2.7881
2.80715
2.80894
2.7987
2.77822
2.74926
2.71382
2.67376
2.63064
2.58575
2.54009
2.49444
2.44935
2.40523
2.36233
2.32082
2.28076
2.24219
2.2051
2.16943
2.13513
2.10213
2.07034
2.0397
2.01013
1.98154
1.95387
1.92706
1.90105
1.87578
1.8512
1.82727
1.80396
1.78122
1.75902
1.73735
1.71619
1.6955
1.67528
1.65552
1.63621
1.61733
1.59888
1.58086
1.56326
1.54608
1.52932
1.51297
1.49703
2.81947
2.86355
2.88357
2.88206
2.86598
2.83813
2.80104
2.75739
2.7095
2.65923
2.60802
2.55693
2.50669
2.45783
2.41064
2.3653
2.32188
2.28037
2.24071
2.20284
2.16663
2.132
2.09881
2.06697
2.03636
2.00689
1.97846
1.95098
1.92439
1.89861
1.87358
1.84925
1.82556
1.80248
1.77997
1.75799
1.73653
1.71555
1.69504
1.67499
1.65537
1.63619
1.61742
1.59907
1.58114
1.5636
1.54648
1.52975
1.51342
1.49749
2.90457
2.95605
2.97635
2.96935
2.94471
2.90671
2.85896
2.80496
2.74756
2.68889
2.63047
2.57334
2.51816
2.46532
2.41498
2.36719
2.32191
2.27901
2.23835
2.19978
2.16312
2.12822
2.09492
2.06307
2.03254
2.00321
1.97496
1.9477
1.92134
1.8958
1.87102
1.84692
1.82347
1.80062
1.77832
1.75655
1.73527
1.71447
1.69412
1.67421
1.65472
1.63565
1.61698
1.59871
1.58084
1.56336
1.54627
1.52957
1.51325
1.49732
3.01055
3.07102
3.08997
3.07391
3.03666
2.98467
2.92296
2.85601
2.78716
2.71873
2.65222
2.58853
2.52814
2.47122
2.41775
2.3676
2.32057
2.27642
2.2349
2.19576
2.15877
2.1237
2.09037
2.05859
2.0282
1.99906
1.97103
1.94401
1.9179
1.89262
1.86808
1.84423
1.82101
1.79838
1.77629
1.75471
1.73361
1.71296
1.69276
1.67297
1.6536
1.63462
1.61604
1.59784
1.58002
1.56258
1.54551
1.52882
1.5125
1.49656
3.14542
3.21631
3.23051
3.1995
3.14359
3.07231
2.99244
2.90941
2.82699
2.74745
2.67208
2.60146
2.53574
2.4748
2.41836
2.36606
2.3175
2.27231
2.23012
2.19059
2.15342
2.11833
2.08509
2.05347
2.02329
1.99439
1.96663
1.93989
1.91406
1.88904
1.86477
1.84117
1.81819
1.79577
1.77388
1.75248
1.73155
1.71105
1.69098
1.67131
1.65203
1.63313
1.61462
1.59647
1.57869
1.56127
1.54422
1.52753
1.5112
1.49524
3.32208
3.40367
3.40609
3.35042
3.26689
3.16916
3.06585
2.96322
2.86504
2.7732
2.68843
2.61077
2.53988
2.47521
2.41613
2.36202
2.31227
2.26635
2.22376
2.18408
2.14693
2.11198
2.07895
2.04761
2.01774
1.98917
1.96173
1.93531
1.90979
1.88507
1.86108
1.83774
1.81499
1.7928
1.7711
1.74988
1.72911
1.70875
1.6888
1.66923
1.65004
1.63121
1.61275
1.59464
1.57689
1.55948
1.54243
1.52573
1.50939
1.4934
3.5628
3.65091
3.62725
3.53096
3.40676
3.27311
3.14016
3.01423
2.89836
2.79344
2.6992
2.61483
2.53926
2.47142
2.41027
2.35488
2.30441
2.25817
2.21553
2.17599
2.1391
2.1045
2.07186
2.04093
2.01148
1.98332
1.95628
1.93024
1.90507
1.88068
1.85699
1.83393
1.81143
1.78946
1.76797
1.74692
1.7263
1.70608
1.68624
1.66676
1.64765
1.62888
1.61046
1.59238
1.57464
1.55725
1.54019
1.52347
1.5071
1.49107
3.90811
3.98523
3.90645
3.74366
3.56037
3.37908
3.20981
3.05735
2.92269
2.80478
2.70176
2.61161
2.53237
2.46231
2.39993
2.34399
2.29343
2.24738
2.20514
2.16609
2.12977
2.09575
2.0637
2.03334
2.00443
1.97678
1.95023
1.92463
1.89987
1.87585
1.85249
1.82972
1.8075
1.78576
1.76447
1.74361
1.72314
1.70305
1.68331
1.66393
1.64488
1.62616
1.60778
1.58972
1.57199
1.55458
1.53751
1.52077
1.50436
1.48829
4.43188
4.4461
4.25577
3.98625
3.71935
3.47726
3.26586
3.08527
2.93239
2.80301
2.69304
2.5989
2.5176
2.4467
2.38427
2.32874
2.27887
2.23366
2.19231
2.15418
2.11875
2.08559
2.05435
2.02474
1.99653
1.96951
1.94353
1.91845
1.89415
1.87055
1.84756
1.82512
1.80318
1.7817
1.76063
1.73995
1.71964
1.69967
1.68004
1.66074
1.64175
1.62308
1.60472
1.58668
1.56895
1.55153
1.53443
1.51765
1.5012
1.48508
5.26695
5.08486
4.68155
4.24896
3.86899
3.5533
3.29666
3.0894
2.92142
2.78403
2.67031
2.57492
2.4938
2.42388
2.36282
2.30884
2.26055
2.21688
2.177
2.14023
2.10606
2.07404
2.04383
2.01516
1.98779
1.96152
1.93621
1.91173
1.88796
1.86482
1.84224
1.82016
1.79853
1.77732
1.75647
1.73599
1.71583
1.696
1.67647
1.65725
1.63832
1.61969
1.60135
1.58331
1.56557
1.54813
1.531
1.51418
1.49768
1.4815
6.70855
5.96745
5.15921
4.49503
3.97653
3.58182
3.28443
3.05806
2.88243
2.74334
2.63087
2.53809
2.46007
2.39333
2.33531
2.28414
2.23841
2.19704
2.15921
2.12428
2.09172
2.06113
2.0322
2.00464
1.97826
1.95286
1.92832
1.90451
1.88133
1.85871
1.83658
1.81489
1.79359
1.77265
1.75205
1.73176
1.71178
1.69207
1.67265
1.65351
1.63463
1.61603
1.59771
1.57967
1.56191
1.54444
1.52727
1.5104
1.49385
1.47761
9.52733
7.15181
5.52343
4.56631
3.92849
3.48772
3.18085
2.96015
2.79498
2.66699
2.56479
2.481
2.41068
2.35047
2.298
2.25153
2.20981
2.17188
2.137
2.1046
2.07423
2.04555
2.01827
1.99215
1.96701
1.94271
1.91911
1.89612
1.87366
1.85165
1.83005
1.80882
1.78791
1.7673
1.74697
1.72691
1.7071
1.68755
1.66824
1.64917
1.63035
1.61178
1.59347
1.57541
1.55763
1.54012
1.5229
1.50597
1.48934
1.47303
14.2955
8.34788
5.42967
4.22611
3.58773
3.19838
2.94799
2.77508
2.64705
2.54732
2.46667
2.39954
2.34231
2.29253
2.24849
2.20894
2.17294
2.13978
2.10893
2.07994
2.05249
2.0263
2.00115
1.97688
1.95333
1.9304
1.90799
1.88603
1.86445
1.8432
1.82225
1.80157
1.78113
1.76091
1.74091
1.72112
1.70152
1.68213
1.66295
1.64397
1.6252
1.60666
1.58835
1.57027
1.55245
1.53488
1.51759
1.50058
1.48386
1.46745
1.01274
1.01229
1.01142
1.01035
1.00929
1.00839
1.00774
1.00741
1.00743
1.00783
1.00863
1.00983
1.01142
1.01339
1.01573
1.01842
1.02145
1.02478
1.0284
1.03228
1.03641
1.04074
1.04528
1.04997
1.05482
1.05978
1.06484
1.06998
1.07517
1.0804
1.08564
1.09087
1.09609
1.10126
1.10638
1.11143
1.11639
1.12126
1.12602
1.13065
1.13515
1.13951
1.14372
1.14777
1.15166
1.15537
1.1589
1.16225
1.16541
1.16837
1.17115
1.17373
1.17611
1.17829
1.18027
1.18204
1.18362
1.185
1.18619
1.18717
1.18796
1.18856
1.18897
1.18919
1.18923
1.18909
1.18877
1.18828
1.18762
1.1868
1.18581
1.18467
1.18338
1.18194
1.18036
1.17865
1.17679
1.17482
1.17271
1.17049
1.16815
1.16571
1.16316
1.16051
1.15776
1.15492
1.152
1.14899
1.1459
1.14274
1.13951
1.13621
1.13285
1.12943
1.12596
1.12243
1.11885
1.11523
1.11157
1.10787
1.10414
1.10037
1.09657
1.09275
1.0889
1.08502
1.08113
1.07722
1.0733
1.06936
1.06541
1.06145
1.05749
1.05351
1.04954
1.04556
1.04158
1.0376
1.03362
1.02964
1.02567
1.0217
1.01774
1.01379
1.00984
1.0059
1.00197
0.998051
0.994142
0.990244
0.986357
0.982483
0.978622
0.974773
0.970938
0.967117
0.96331
0.959517
0.955738
0.951975
0.948226
0.944492
0.940774
0.93707
0.933382
0.929709
0.926051
0.922409
0.918781
0.915169
0.911572
0.90799
0.904423
0.900871
0.897334
0.893811
0.890302
0.886807
0.883327
0.879861
0.876408
0.872969
0.869543
0.86613
0.86273
0.859343
0.855968
0.852605
0.849255
0.845916
0.842589
0.839274
0.835969
0.832676
0.829393
0.826121
0.822858
0.819606
0.816364
0.813131
0.809907
0.806693
0.803487
0.80029
0.797101
0.793921
0.790748
0.787584
0.784427
0.781277
0.778134
0.774999
0.77187
0.768747
0.765631
0.762521
0.759417
0.756319
0.753227
0.75014
0.747058
0.743981
0.740909
0.737842
0.73478
0.731722
0.728668
0.725618
0.722573
0.719531
0.716493
0.713458
0.710427
0.707399
0.704374
0.701353
0.698334
0.695318
0.692305
0.689294
0.686286
0.68328
0.680276
0.677275
0.674275
0.671278
0.668282
0.665288
0.662296
0.659306
0.656317
0.653329
0.650343
0.647358
0.644374
0.641391
0.63841
0.63543
0.63245
0.629471
0.626494
0.623517
0.62054
0.617565
0.61459
0.611615
0.608641
0.605668
0.602695
0.599722
0.59675
0.593778
0.590807
0.587835
0.584864
0.581893
0.578922
0.575951
0.572981
0.57001
0.567039
0.564069
0.561098
0.558127
0.555157
0.552186
0.549215
0.546244
0.543272
0.540301
0.537329
0.534358
0.531386
0.528413
0.525441
0.522468
0.519495
0.516522
0.513548
0.510574
0.5076
0.504626
0.501651
0.498676
0.4957
0.492725
0.489748
0.486772
0.483795
0.480818
0.47784
0.474862
0.471884
0.468905
0.465926
0.462947
0.459967
0.456986
0.454006
0.451025
0.448043
0.445061
0.442079
0.439097
0.436114
0.43313
0.430147
0.427162
0.424178
0.421193
0.418208
0.415222
0.412236
0.40925
0.406263
0.403276
0.400288
0.3973
0.394312
0.391324
0.388335
0.385345
0.382356
0.379366
0.376375
0.373385
0.370394
0.367403
0.364411
0.361419
0.358427
0.355434
0.352441
0.349448
0.346455
0.343461
0.340467
0.337473
0.334479
0.331484
0.328489
0.325494
0.322498
0.319503
0.316507
0.313511
0.310514
0.307518
0.304521
0.301524
0.298527
0.29553
0.292532
0.289535
0.286537
0.283539
0.28054
0.277542
0.274544
0.271545
0.268546
0.265547
0.262548
0.259549
0.256549
0.25355
0.25055
0.247551
0.244551
0.241551
0.238551
0.235551
0.23255
0.22955
0.22655
0.223549
0.220549
0.217548
0.214547
0.211547
0.208546
0.205545
0.202544
0.199543
0.196543
0.193542
0.190541
0.18754
0.184539
0.181537
0.178536
0.175535
0.172534
0.169533
0.166532
0.163531
0.160529
0.157528
0.154527
0.151526
0.148525
0.145523
0.142522
0.139521
0.13652
0.133519
0.130517
0.127516
0.124515
0.121514
0.118513
0.115512
0.112511
0.10951
0.106509
0.103508
0.100507
0.0975058
0.094505
0.0915041
0.0885033
0.0855024
0.0825017
0.0795009
0.0765002
0.0734995
0.0704988
0.0674982
0.0644976
0.0614971
0.0584966
0.0554961
0.0524956
0.0494952
0.0464948
0.0434945
0.0404941
0.0374938
0.0344936
0.0314933
0.0284931
0.0254929
0.0224928
0.0194927
0.0164927
0.0134929
0.0104931
0.00749357
0.00449429
0.00149674
1.0132
1.01274
1.01205
1.01126
1.01049
1.00985
1.00942
1.00926
1.00942
1.00991
1.01075
1.01194
1.0135
1.0154
1.01764
1.02021
1.02309
1.02626
1.0297
1.03339
1.03732
1.04145
1.04577
1.05025
1.05487
1.05961
1.06445
1.06937
1.07435
1.07937
1.0844
1.08944
1.09446
1.09945
1.1044
1.10928
1.11408
1.1188
1.12341
1.12791
1.13229
1.13653
1.14063
1.14458
1.14838
1.15201
1.15547
1.15875
1.16186
1.16478
1.16751
1.17006
1.17241
1.17457
1.17654
1.17831
1.17989
1.18127
1.18247
1.18347
1.18428
1.1849
1.18534
1.1856
1.18568
1.18558
1.1853
1.18486
1.18425
1.18348
1.18255
1.18147
1.18024
1.17886
1.17734
1.17569
1.1739
1.17199
1.16996
1.1678
1.16553
1.16316
1.16067
1.15809
1.15541
1.15264
1.14979
1.14685
1.14383
1.14073
1.13757
1.13434
1.13104
1.12768
1.12427
1.12081
1.11729
1.11374
1.11013
1.10649
1.10281
1.0991
1.09536
1.09158
1.08779
1.08396
1.08012
1.07626
1.07238
1.06849
1.06459
1.06067
1.05675
1.05282
1.04888
1.04494
1.041
1.03705
1.03311
1.02916
1.02522
1.02129
1.01736
1.01343
1.00951
1.0056
1.00169
0.997799
0.993914
0.990038
0.986174
0.982321
0.978479
0.97465
0.970833
0.967029
0.963239
0.959462
0.955699
0.951949
0.948214
0.944494
0.940787
0.937096
0.933418
0.929756
0.926108
0.922475
0.918856
0.915252
0.911663
0.908088
0.904528
0.900982
0.89745
0.893932
0.890428
0.886939
0.883462
0.88
0.87655
0.873114
0.869691
0.866281
0.862883
0.859498
0.856125
0.852764
0.849414
0.846077
0.842751
0.839435
0.836131
0.832838
0.829555
0.826282
0.82302
0.819767
0.816524
0.81329
0.810066
0.80685
0.803643
0.800445
0.797255
0.794073
0.790899
0.787733
0.784574
0.781423
0.778278
0.775141
0.77201
0.768886
0.765767
0.762656
0.75955
0.756449
0.753355
0.750266
0.747182
0.744103
0.741029
0.737959
0.734895
0.731834
0.728778
0.725727
0.722679
0.719635
0.716594
0.713558
0.710524
0.707494
0.704467
0.701444
0.698423
0.695405
0.692389
0.689376
0.686366
0.683358
0.680353
0.677349
0.674348
0.671348
0.668351
0.665355
0.662361
0.659369
0.656378
0.653388
0.6504
0.647414
0.644428
0.641444
0.638461
0.635479
0.632498
0.629517
0.626538
0.62356
0.620582
0.617605
0.614628
0.611653
0.608677
0.605703
0.602728
0.599754
0.596781
0.593808
0.590835
0.587862
0.58489
0.581918
0.578946
0.575974
0.573002
0.570031
0.567059
0.564088
0.561116
0.558144
0.555173
0.552201
0.549229
0.546257
0.543285
0.540313
0.53734
0.534368
0.531395
0.528422
0.525449
0.522476
0.519502
0.516528
0.513554
0.51058
0.507605
0.50463
0.501655
0.498679
0.495703
0.492727
0.48975
0.486773
0.483796
0.480818
0.47784
0.474862
0.471883
0.468904
0.465924
0.462945
0.459964
0.456984
0.454003
0.451022
0.44804
0.445058
0.442075
0.439093
0.436109
0.433126
0.430142
0.427158
0.424173
0.421188
0.418202
0.415217
0.412231
0.409244
0.406257
0.40327
0.400282
0.397294
0.394306
0.391317
0.388329
0.385339
0.38235
0.379359
0.376369
0.373378
0.370387
0.367396
0.364405
0.361413
0.35842
0.355428
0.352435
0.349442
0.346449
0.343455
0.340461
0.337467
0.334473
0.331478
0.328483
0.325488
0.322493
0.319497
0.316501
0.313505
0.310509
0.307513
0.304516
0.301519
0.298522
0.295525
0.292527
0.28953
0.286532
0.283534
0.280536
0.277538
0.274539
0.271541
0.268542
0.265543
0.262544
0.259545
0.256546
0.253546
0.250547
0.247547
0.244547
0.241548
0.238548
0.235548
0.232547
0.229547
0.226547
0.223547
0.220546
0.217546
0.214545
0.211545
0.208544
0.205543
0.202542
0.199542
0.196541
0.19354
0.190539
0.187538
0.184537
0.181536
0.178535
0.175534
0.172533
0.169532
0.166531
0.16353
0.160529
0.157528
0.154526
0.151525
0.148524
0.145523
0.142522
0.139521
0.13652
0.133518
0.130517
0.127516
0.124515
0.121514
0.118513
0.115512
0.112511
0.10951
0.106509
0.103508
0.100507
0.0975061
0.0945052
0.0915044
0.0885036
0.0855028
0.082502
0.0795013
0.0765006
0.0734999
0.0704993
0.0674987
0.0644981
0.0614976
0.0584971
0.0554966
0.0524962
0.0494958
0.0464954
0.0434951
0.0404947
0.0374945
0.0344942
0.031494
0.0284938
0.0254937
0.0224936
0.0194936
0.0164937
0.0134939
0.0104942
0.00749478
0.00449536
0.00149717
1.01407
1.01343
1.01274
1.01205
1.01141
1.01092
1.01063
1.01058
1.01082
1.01136
1.01223
1.01343
1.01495
1.01681
1.01898
1.02146
1.02423
1.02728
1.03058
1.03413
1.0379
1.04187
1.04602
1.05033
1.05478
1.05935
1.06402
1.06877
1.07358
1.07843
1.08331
1.08819
1.09306
1.09791
1.10271
1.10745
1.11213
1.11673
1.12123
1.12562
1.1299
1.13405
1.13806
1.14193
1.14566
1.14922
1.15262
1.15585
1.15891
1.16179
1.1645
1.16701
1.16934
1.17149
1.17345
1.17521
1.17679
1.17818
1.17938
1.18039
1.18122
1.18187
1.18233
1.18261
1.18272
1.18265
1.18242
1.18201
1.18144
1.18072
1.17983
1.1788
1.17761
1.17629
1.17482
1.17322
1.17149
1.16963
1.16764
1.16555
1.16333
1.16101
1.15859
1.15606
1.15344
1.15072
1.14792
1.14504
1.14207
1.13904
1.13592
1.13275
1.1295
1.1262
1.12284
1.11943
1.11596
1.11246
1.1089
1.10531
1.10168
1.09801
1.09431
1.09058
1.08683
1.08305
1.07925
1.07543
1.07159
1.06774
1.06387
1.05999
1.0561
1.0522
1.0483
1.04439
1.04048
1.03657
1.03265
1.02874
1.02482
1.02091
1.01701
1.01311
1.00921
1.00532
1.00144
0.997566
0.993701
0.989845
0.985999
0.982164
0.97834
0.974527
0.970726
0.966938
0.963162
0.959398
0.955648
0.951912
0.948189
0.944479
0.940784
0.937102
0.933435
0.929781
0.926142
0.922517
0.918906
0.91531
0.911727
0.908159
0.904604
0.901064
0.897537
0.894025
0.890525
0.88704
0.883567
0.880108
0.876662
0.873229
0.869808
0.866401
0.863005
0.859622
0.85625
0.852891
0.849543
0.846206
0.842881
0.839566
0.836263
0.83297
0.829687
0.826414
0.823152
0.819899
0.816655
0.813421
0.810196
0.80698
0.803772
0.800573
0.797382
0.794199