/*--------------------------------*- C++ -*----------------------------------*\
| =========                 |                                                 |
| \\      /  F ield         | OpenFOAM: The Open Source CFD Toolbox           |
|  \\    /   O peration     | Version:  2306                                  |
|   \\  /    A nd           | Website:  www.openfoam.com                      |
|    \\/     M anipulation  |                                                 |
\*---------------------------------------------------------------------------*/
FoamFile
{
    version     2.0;
    format      ascii;
    arch        "LSB;label=32;scalar=64";
    class       volScalarField;
    location    "10";
    object      p;
}
// * * * * * * * * * * * * * * * * * * * * * * * * * * * * * * * * * * * * * //

dimensions      [0 2 -2 0 0 0 0];

internalField   nonuniform List<scalar> 
1900
(
0.0528761
0.0286591
0.00827118
-0.00706285
-0.0180743
-0.0286158
-0.0390392
-0.0511773
-0.0636979
-0.0777052
0.0236148
0.0154177
0.0041057
-0.0074413
-0.0184574
-0.0286342
-0.0390516
-0.0495457
-0.061019
-0.0720522
0.0145166
0.0100273
0.00251473
-0.00684898
-0.0169266
-0.0268982
-0.0366687
-0.0462112
-0.0556265
-0.0646961
0.00880996
0.00573741
8.94436e-05
-0.00755609
-0.0164038
-0.0256393
-0.0348247
-0.0437323
-0.0523181
-0.0604729
0.00657895
0.0040438
-0.000694394
-0.00734184
-0.0153198
-0.0239222
-0.032596
-0.0410189
-0.0490434
-0.0565811
0.00720628
0.0047251
0.00011351
-0.00635287
-0.0140933
-0.0223996
-0.0307134
-0.0387183
-0.0462907
-0.0534023
0.0106553
0.00770831
0.0024252
-0.00466096
-0.0127255
-0.0210184
-0.0290743
-0.0367162
-0.0439367
-0.0507711
0.0173488
0.0130519
0.00615129
-0.00232208
-0.0111484
-0.0195815
-0.0274259
-0.0347758
-0.0417814
-0.0485054
0.0274849
0.019384
0.00894446
-0.00152206
-0.010837
-0.0189591
-0.0263413
-0.033407
-0.0403203
-0.0470416
0.0563331
0.0336586
0.0139476
-0.000121368
-0.00978739
-0.017494
-0.0247379
-0.0319746
-0.0391548
-0.0460737
-0.100829
-0.100863
-0.100908
-0.100962
-0.101022
-0.101088
-0.101159
-0.101234
-0.101312
-0.101391
-0.101469
-0.101545
-0.101616
-0.101681
-0.101737
-0.101784
-0.10182
-0.101842
-0.101849
-0.10184
-0.101813
-0.101768
-0.101703
-0.101617
-0.101509
-0.101379
-0.101227
-0.101051
-0.100851
-0.100627
-0.100378
-0.100103
-0.0998027
-0.0994749
-0.099119
-0.0987336
-0.098317
-0.0978669
-0.0973803
-0.0968533
-0.0962809
-0.0956563
-0.094971
-0.0942136
-0.09337
-0.0924224
-0.0913493
-0.0901257
-0.0887238
-0.0871128
-0.0852589
-0.0831259
-0.0806755
-0.0778671
-0.0746572
-0.0710026
-0.0668685
-0.062233
-0.0570762
-0.0514016
-0.0452458
-0.0386544
-0.0316952
-0.0244602
-0.0170583
-0.00961307
-0.0022524
0.00489444
0.0116965
0.0180443
0.0238209
0.0289573
0.033366
0.0370268
0.0398813
0.0419531
0.0432182
0.0437305
0.0434848
0.0425616
0.0409589
0.0387735
0.0359923
0.0327222
0.0289211
0.0247107
0.0199886
0.0149214
0.00927703
0.00338049
-0.100824
-0.100856
-0.100883
-0.100925
-0.100976
-0.101035
-0.101101
-0.101171
-0.101245
-0.101321
-0.101396
-0.101469
-0.101539
-0.101602
-0.101658
-0.101704
-0.101739
-0.101761
-0.101768
-0.10176
-0.101733
-0.101688
-0.101623
-0.101538
-0.10143
-0.101301
-0.101148
-0.100971
-0.10077
-0.100544
-0.100293
-0.100016
-0.0997117
-0.0993797
-0.0990187
-0.0986272
-0.0982034
-0.097745
-0.0972489
-0.0967113
-0.0961272
-0.0954902
-0.0947923
-0.0940236
-0.0931716
-0.0922208
-0.0911524
-0.0899443
-0.0885712
-0.0870047
-0.0852123
-0.0831567
-0.0807957
-0.078084
-0.0749723
-0.071408
-0.0673498
-0.0627928
-0.0577215
-0.0521337
-0.0460395
-0.0394907
-0.0325582
-0.0253372
-0.0179366
-0.0104824
-0.00310845
0.00405702
0.0108696
0.0172408
0.0230241
0.0281745
0.032587
0.0362552
0.0391137
0.0411931
0.0424603
0.0429829
0.0427413
0.0418342
0.0402398
0.0380796
0.035313
0.0320792
0.0283018
0.0241378
0.0194584
0.014447
0.00892436
0.00315009
-0.100707
-0.100789
-0.100834
-0.100887
-0.100943
-0.101004
-0.101072
-0.101145
-0.101221
-0.101299
-0.101378
-0.101455
-0.101528
-0.101595
-0.101655
-0.101705
-0.101743
-0.101769
-0.101779
-0.101773
-0.101749
-0.101707
-0.101643
-0.101559
-0.101453
-0.101323
-0.10117
-0.100993
-0.100792
-0.100565
-0.100313
-0.100035
-0.0997303
-0.099398
-0.0990371
-0.0986463
-0.098224
-0.097768
-0.0972756
-0.0967429
-0.0961651
-0.0955355
-0.0948466
-0.0940893
-0.0932529
-0.0923243
-0.0912874
-0.0901217
-0.0888031
-0.0873054
-0.0855963
-0.083635
-0.0813716
-0.0787588
-0.0757554
-0.0723068
-0.0683553
-0.0638558
-0.0588048
-0.0532164
-0.0471155
-0.0405589
-0.0336153
-0.0263796
-0.01897
-0.0115175
-0.00415943
0.00299368
0.00978749
0.0161337
0.0218921
0.0270128
0.0313953
0.0350317
0.0378598
0.0399122
0.0411571
0.0416649
0.0414183
0.0405161
0.0389417
0.0368121
0.0340978
0.0309263
0.0272436
0.0231831
0.018661
0.0138206
0.00855723
0.00304021
-0.100789
-0.100863
-0.100867
-0.100893
-0.100939
-0.101001
-0.101074
-0.101154
-0.101239
-0.101327
-0.101414
-0.101499
-0.101579
-0.101654
-0.101719
-0.101775
-0.101818
-0.101847
-0.10186
-0.101856
-0.101834
-0.101792
-0.101729
-0.101644
-0.101537
-0.101406
-0.101251
-0.101072
-0.100867
-0.100638
-0.100383
-0.100102
-0.0997943
-0.0994601
-0.0990978
-0.0987064
-0.0982847
-0.0978308
-0.0973422
-0.0968154
-0.0962455
-0.095626
-0.0949491
-0.0942074
-0.0933919
-0.0924912
-0.09149
-0.0903688
-0.0891021
-0.0876667
-0.0860305
-0.0841502
-0.0819708
-0.0794357
-0.0764806
-0.0730689
-0.0691459
-0.0646813
-0.059661
-0.0541005
-0.0480255
-0.041498
-0.0345933
-0.0274099
-0.0200698
-0.0126968
-0.00543307
0.00160639
0.00827798
0.0144874
0.0201119
0.025094
0.0293486
0.0328617
0.0355853
0.0375463
0.0387265
0.0391884
0.03893
0.0380379
0.0365132
0.0344558
0.0318583
0.0288257
0.0253345
0.0214907
0.0172518
0.0127264
0.00785427
0.00275311
-0.100466
-0.100671
-0.100761
-0.100865
-0.100963
-0.101057
-0.101149
-0.101244
-0.101341
-0.101438
-0.101534
-0.101627
-0.101713
-0.101792
-0.101862
-0.101919
-0.101964
-0.101994
-0.102007
-0.102002
-0.101978
-0.101933
-0.101867
-0.101778
-0.101667
-0.101531
-0.101372
-0.101188
-0.100979
-0.100744
-0.100485
-0.100201
-0.0998916
-0.0995562
-0.0991938
-0.0988029
-0.0983828
-0.0979322
-0.0974486
-0.0969287
-0.0963675
-0.0957581
-0.0950922
-0.0943654
-0.0935698
-0.0926929
-0.0917182
-0.0906297
-0.0893968
-0.0879872
-0.0863645
-0.0844936
-0.0823167
-0.079784
-0.0768324
-0.0734192
-0.0694937
-0.0650339
-0.0600289
-0.0544989
-0.0484774
-0.0420286
-0.0352325
-0.0281912
-0.0210226
-0.0138508
-0.00681014
-1.99871e-05
0.00639298
0.012331
0.0176915
0.0224131
0.0264295
0.0297222
0.0322615
0.0340683
0.0351415
0.0355338
0.0352607
0.0343944
0.032955
0.0310237
0.0286148
0.0258114
0.0226162
0.0191112
0.0152851
0.0112211
0.00689497
0.002399
-0.101296
-0.101319
-0.101218
-0.101173
-0.101184
-0.101242
-0.101329
-0.10143
-0.101532
-0.101633
-0.101731
-0.101823
-0.101907
-0.101983
-0.102048
-0.1021
-0.102139
-0.102162
-0.102169
-0.102157
-0.102126
-0.102075
-0.102002
-0.101907
-0.101789
-0.101648
-0.101483
-0.101294
-0.10108
-0.100842
-0.100579
-0.100293
-0.0999811
-0.0996445
-0.0992813
-0.0988897
-0.0984721
-0.0980259
-0.0975476
-0.0970337
-0.0964794
-0.0958785
-0.0952214
-0.0944973
-0.0936977
-0.0928141
-0.0918281
-0.090721
-0.089463
-0.0880258
-0.0863687
-0.0844531
-0.082224
-0.0796341
-0.0766264
-0.0731616
-0.0692006
-0.0647284
-0.059741
-0.0542641
-0.0483383
-0.0420323
-0.035429
-0.0286325
-0.0217554
-0.0149196
-0.00824678
-0.00185308
0.00415263
0.0096768
0.0146368
0.0189741
0.0226417
0.0256217
0.0279027
0.0295025
0.0304365
0.0307491
0.0304714
0.0296622
0.0283568
0.0266194
0.0244808
0.0220045
0.019212
0.0161641
0.012872
0.00939682
0.00574104
0.00197038
-0.0999763
-0.10062
-0.100822
-0.101078
-0.101292
-0.101454
-0.101576
-0.101677
-0.101769
-0.101857
-0.10194
-0.102017
-0.102087
-0.102149
-0.1022
-0.102239
-0.102266
-0.102278
-0.102275
-0.102254
-0.102215
-0.102156
-0.102076
-0.101975
-0.101852
-0.101705
-0.101535
-0.101342
-0.101126
-0.100886
-0.100622
-0.100334
-0.100023
-0.0996865
-0.0993246
-0.0989331
-0.0985086
-0.0980536
-0.0975653
-0.0970389
-0.0964679
-0.0958455
-0.0951622
-0.0944094
-0.0935751
-0.0926476
-0.0916072
-0.0904338
-0.0890976
-0.0875689
-0.0858078
-0.0837762
-0.0814265
-0.0787165
-0.0756005
-0.0720466
-0.068028
-0.0635387
-0.0585849
-0.0531994
-0.0474293
-0.0413477
-0.035038
-0.0286032
-0.0221489
-0.0157903
-0.00963395
-0.00378497
0.00166803
0.00664347
0.0110794
0.0149265
0.0181571
0.0207581
0.0227345
0.0241033
0.0248933
0.0251415
0.0248896
0.0241843
0.0230705
0.0215965
0.0198034
0.0177365
0.0154298
0.0129243
0.0102464
0.00743535
0.00451162
0.0015164
-0.104681
-0.103302
-0.102674
-0.10224
-0.102013
-0.101923
-0.101911
-0.101936
-0.101974
-0.10202
-0.102069
-0.102118
-0.102165
-0.102207
-0.102243
-0.10227
-0.102287
-0.102292
-0.10228
-0.102251
-0.102205
-0.102141
-0.102057
-0.101953
-0.101828
-0.101682
-0.101511
-0.101314
-0.101092
-0.100845
-0.100573
-0.100276
-0.0999511
-0.0995986
-0.0992161
-0.0988014
-0.098352
-0.0978663
-0.0973405
-0.0967692
-0.0961451
-0.0954604
-0.0947051
-0.0938685
-0.0929373
-0.0918973
-0.0907296
-0.089413
-0.0879198
-0.0862207
-0.0842808
-0.0820654
-0.0795362
-0.0766593
-0.0734027
-0.0697463
-0.0656766
-0.0611987
-0.0563294
-0.0511082
-0.0455865
-0.0398379
-0.0339425
-0.0279979
-0.0220985
-0.0163482
-0.0108367
-0.00565364
-0.000864859
0.00346516
0.00729637
0.0105924
0.0133438
0.0155436
0.0172099
0.0183581
0.0190259
0.019242
0.0190543
0.0184966
0.0176191
0.0164544
0.0150501
0.0134338
0.0116481
0.00971468
0.00767094
0.00553405
0.0033361
0.00109092
-0.0988485
-0.0999287
-0.100764
-0.101375
-0.101691
-0.10181
-0.101845
-0.10186
-0.101875
-0.101906
-0.101944
-0.101984
-0.102023
-0.102061
-0.102093
-0.102118
-0.102134
-0.102142
-0.10214
-0.10212
-0.102079
-0.102017
-0.101932
-0.101824
-0.101692
-0.101534
-0.101351
-0.10114
-0.1009
-0.10063
-0.100329
-0.0999962
-0.09963
-0.0992287
-0.0987901
-0.0983113
-0.0977887
-0.0972186
-0.0965963
-0.0959158
-0.0951695
-0.0943489
-0.0934432
-0.0924409
-0.0913285
-0.0900918
-0.0887134
-0.087174
-0.08545
-0.0835168
-0.0813467
-0.0789128
-0.0761878
-0.0731485
-0.0697746
-0.0660559
-0.0619924
-0.0576002
-0.0529059
-0.0479543
-0.0427983
-0.0375079
-0.0321559
-0.0268278
-0.0216023
-0.016565
-0.0117849
-0.00733341
-0.00325773
0.000394931
0.00360505
0.00634933
0.00863318
0.0104538
0.0118378
0.0127974
0.0133743
0.0135885
0.0134903
0.0131009
0.0124738
0.0116262
0.0106108
0.00943802
0.00815766
0.0067719
0.0053282
0.00382116
0.00229501
0.000734462
-0.121487
-0.106593
-0.104669
-0.103193
-0.102278
-0.101849
-0.101674
-0.101613
-0.101597
-0.101603
-0.101643
-0.101703
-0.101767
-0.101828
-0.101884
-0.101932
-0.101969
-0.101992
-0.101997
-0.101978
-0.101933
-0.101859
-0.101754
-0.101619
-0.101451
-0.101251
-0.101018
-0.100752
-0.100449
-0.100107
-0.099724
-0.099298
-0.0988275
-0.0983111
-0.097746
-0.0971293
-0.0964571
-0.0957249
-0.0949278
-0.0940598
-0.0931137
-0.0920812
-0.0909525
-0.0897171
-0.0883626
-0.0868749
-0.0852383
-0.0834365
-0.0814522
-0.0792674
-0.0768636
-0.0742237
-0.071332
-0.0681772
-0.0647527
-0.0610606
-0.0571114
-0.0529279
-0.0485406
-0.043993
-0.0393334
-0.034622
-0.0299192
-0.0252944
-0.0208091
-0.0165294
-0.0125049
-0.00878862
-0.00541169
-0.0024071
0.000220325
0.00245754
0.00431896
0.00580398
0.00694291
0.00774441
0.00825169
0.00847716
0.008472
0.00824651
0.00785619
0.0073047
0.00664944
0.00588352
0.00506508
0.00417428
0.00327082
0.0023215
0.00138886
0.000421589
-0.0891054
-0.0955372
-0.0980434
-0.0988931
-0.0993486
-0.0997584
-0.100138
-0.100458
-0.100736
-0.100977
-0.101185
-0.101364
-0.101516
-0.101646
-0.101757
-0.101847
-0.101913
-0.10195
-0.101955
-0.101922
-0.101849
-0.101732
-0.101571
-0.101365
-0.101113
-0.100816
-0.100474
-0.100086
-0.0996506
-0.0991651
-0.0986284
-0.0980389
-0.0973945
-0.0966924
-0.09593
-0.0951043
-0.094212
-0.0932491
-0.0922108
-0.0910919
-0.089886
-0.0885862
-0.0871843
-0.085672
-0.0840395
-0.0822768
-0.0803734
-0.0783188
-0.0761025
-0.0737145
-0.0711451
-0.0683863
-0.065432
-0.0622804
-0.0589338
-0.055401
-0.0516969
-0.0478449
-0.0438739
-0.0398214
-0.0357284
-0.0316427
-0.0276128
-0.0236923
-0.0199285
-0.0163705
-0.0130546
-0.0100178
-0.0072782
-0.00485519
-0.00274622
-0.000956187
0.000532909
0.001724
0.0026474
0.00331155
0.00375815
0.00399646
0.00407575
0.00399983
0.00382311
0.00353888
0.00320643
0.00280359
0.00239565
0.00193944
0.00150879
0.00103418
0.000603666
0.000115993
-0.0832736
-0.0910405
-0.0950156
-0.0964372
-0.0968742
-0.0972185
-0.0977268
-0.0983553
-0.0989906
-0.0995597
-0.100038
-0.100432
-0.100759
-0.101036
-0.101269
-0.101459
-0.101602
-0.101693
-0.101726
-0.101696
-0.101601
-0.101437
-0.101206
-0.100907
-0.100541
-0.100111
-0.0996172
-0.0990609
-0.0984426
-0.0977624
-0.09702
-0.0962147
-0.0953456
-0.0944111
-0.0934094
-0.0923384
-0.0911955
-0.0899777
-0.0886811
-0.0873016
-0.0858344
-0.0842745
-0.0826163
-0.0808542
-0.0789823
-0.0769947
-0.0748859
-0.0726507
-0.070284
-0.067782
-0.0651412
-0.0623598
-0.059438
-0.056379
-0.0531899
-0.0498818
-0.0464708
-0.0429788
-0.0394325
-0.0358645
-0.0323105
-0.02881
-0.0254015
-0.0221242
-0.0190128
-0.0161009
-0.0134132
-0.0109725
-0.00878931
-0.00687318
-0.00521869
-0.00382181
-0.00266206
-0.00172928
-0.000995407
-0.000448529
-5.23866e-05
0.000204034
0.000363427
0.000429228
0.000448021
0.000408876
0.000364327
0.000283549
0.000230935
0.000145848
0.000111794
2.16308e-05
-6.18268e-06
-0.000140264
-0.0731345
-0.0803045
-0.0856477
-0.0891515
-0.0913159
-0.0927942
-0.0940341
-0.0952155
-0.096352
-0.0973982
-0.0983159
-0.0990948
-0.099745
-0.100284
-0.100725
-0.101077
-0.10134
-0.101511
-0.101587
-0.101567
-0.101447
-0.10123
-0.100916
-0.10051
-0.100014
-0.0994318
-0.0987681
-0.0980259
-0.0972083
-0.0963177
-0.0953559
-0.094324
-0.0932223
-0.0920508
-0.0908086
-0.0894944
-0.0881062
-0.0866418
-0.0850985
-0.0834733
-0.0817631
-0.0799647
-0.0780749
-0.0760907
-0.0740095
-0.0718293
-0.0695485
-0.0671663
-0.0646828
-0.0620989
-0.0594167
-0.0566398
-0.0537735
-0.0508246
-0.0478022
-0.0447183
-0.0415879
-0.0384309
-0.0352714
-0.0321386
-0.0290645
-0.0260827
-0.0232252
-0.0205203
-0.01799
-0.0156522
-0.0135184
-0.0115983
-0.00989684
-0.00841733
-0.00715303
-0.0060919
-0.00520975
-0.00448658
-0.00389616
-0.00342312
-0.00304115
-0.00273733
-0.00248114
-0.00226585
-0.00206053
-0.00187347
-0.00167079
-0.00148006
-0.00125366
-0.00105049
-0.000795575
-0.000608148
-0.000354429
-0.000264968
-0.0679901
-0.0746196
-0.0801045
-0.084342
-0.0874556
-0.0897541
-0.0915775
-0.0931642
-0.0946221
-0.095969
-0.0971849
-0.0982491
-0.099155
-0.0999086
-0.10052
-0.100999
-0.10135
-0.101572
-0.101666
-0.10163
-0.101465
-0.101173
-0.100759
-0.100228
-0.0995857
-0.0988397
-0.0979959
-0.0970602
-0.0960379
-0.0949336
-0.0937511
-0.0924934
-0.0911621
-0.0897582
-0.0882816
-0.0867316
-0.0851071
-0.0834063
-0.0816275
-0.079769
-0.0778291
-0.0758065
-0.0737003
-0.07151
-0.069236
-0.0668797
-0.0644431
-0.0619298
-0.0593444
-0.0566927
-0.0539818
-0.05122
-0.0484165
-0.0455807
-0.042723
-0.0398549
-0.03699
-0.0341448
-0.0313402
-0.0286015
-0.0259582
-0.0234415
-0.0210796
-0.0188928
-0.0168902
-0.0150704
-0.0134261
-0.0119521
-0.0106479
-0.00951535
-0.00854951
-0.00773509
-0.00704447
-0.00644851
-0.00592128
-0.00544956
-0.00502139
-0.00463004
-0.00425971
-0.00390306
-0.0035434
-0.00318195
-0.00280354
-0.00242287
-0.00201961
-0.00163074
-0.00121534
-0.000863722
-0.000471683
-0.000273885
-0.0635494
-0.0698401
-0.0753251
-0.0799105
-0.083605
-0.0865419
-0.0889301
-0.0909684
-0.0927889
-0.0944498
-0.095959
-0.0973031
-0.0984687
-0.0994511
-0.100253
-0.10088
-0.101337
-0.101626
-0.101748
-0.101706
-0.101501
-0.101139
-0.100628
-0.0999746
-0.0991898
-0.0982827
-0.0972622
-0.0961366
-0.0949134
-0.0935996
-0.0922012
-0.0907231
-0.0891687
-0.0875399
-0.0858375
-0.0840614
-0.0822109
-0.0802853
-0.0782835
-0.0762049
-0.0740495
-0.0718175
-0.0695104
-0.0671305
-0.0646809
-0.0621661
-0.0595919
-0.0569656
-0.0542962
-0.0515945
-0.0488728
-0.0461443
-0.0434216
-0.0407165
-0.03804
-0.0354022
-0.0328141
-0.0302872
-0.0278353
-0.0254763
-0.0232346
-0.0211392
-0.0192164
-0.017482
-0.0159338
-0.0145496
-0.0132997
-0.0121635
-0.0111368
-0.0102239
-0.00942555
-0.00873361
-0.00812376
-0.00756312
-0.00702449
-0.00649726
-0.00598048
-0.00547981
-0.00499756
-0.00453528
-0.00408609
-0.00364697
-0.00320641
-0.00276466
-0.00231063
-0.00185772
-0.0013935
-0.000965435
-0.000531838
-0.000263879
-0.0600341
-0.0661317
-0.0716097
-0.0763911
-0.0804533
-0.0838505
-0.0867037
-0.0891576
-0.0913322
-0.0932986
-0.0950829
-0.0966826
-0.0980854
-0.0992805
-0.100263
-0.101033
-0.101592
-0.101943
-0.102087
-0.102029
-0.101773
-0.101328
-0.100704
-0.0999153
-0.0989757
-0.0978979
-0.0966935
-0.0953727
-0.0939453
-0.0924205
-0.0908062
-0.0891092
-0.0873344
-0.0854853
-0.0835636
-0.0815701
-0.0795049
-0.0773679
-0.0751589
-0.0728786
-0.0705281
-0.0681098
-0.0656274
-0.063086
-0.0604921
-0.0578532
-0.0551786
-0.0524786
-0.0497657
-0.0470552
-0.0443646
-0.0417116
-0.0391116
-0.036577
-0.034117
-0.0317389
-0.0294484
-0.0272507
-0.0251501
-0.0231511
-0.0212683
-0.0195253
-0.0179447
-0.0165404
-0.0153085
-0.0142158
-0.0132201
-0.0122909
-0.0114188
-0.0106057
-0.00984927
-0.00915621
-0.00852619
-0.00794282
-0.00738643
-0.00685064
-0.00632818
-0.00581232
-0.00530232
-0.00479981
-0.00430406
-0.00381494
-0.00332985
-0.00284949
-0.00236988
-0.00189502
-0.00142164
-0.000972664
-0.00054079
-0.000254453
-0.0572183
-0.0632237
-0.0687062
-0.0736005
-0.0778861
-0.0815956
-0.0848059
-0.0876153
-0.0901167
-0.0923756
-0.0944242
-0.0962678
-0.0978963
-0.0992958
-0.100455
-0.101368
-0.102031
-0.102445
-0.102611
-0.102534
-0.102222
-0.101686
-0.100942
-0.100009
-0.0989082
-0.0976557
-0.0962663
-0.0947525
-0.0931261
-0.0913982
-0.0895788
-0.0876764
-0.0856978
-0.0836479
-0.0815296
-0.0793449
-0.0770948
-0.0747801
-0.0724018
-0.0699616
-0.0674622
-0.0649078
-0.0623043
-0.0596596
-0.0569836
-0.0542875
-0.0515832
-0.0488825
-0.0461993
-0.0435511
-0.0409585
-0.0384403
-0.0360107
-0.033679
-0.0314498
-0.0293246
-0.0273028
-0.0253842
-0.0235696
-0.0218609
-0.0202619
-0.018782
-0.0174334
-0.0162178
-0.015121
-0.0141269
-0.0132177
-0.0123745
-0.0115852
-0.0108483
-0.0101632
-0.00950519
-0.00885419
-0.00820471
-0.0075659
-0.00694747
-0.00635735
-0.00579859
-0.00527205
-0.00477165
-0.00428807
-0.00381418
-0.00334341
-0.00287346
-0.002402
-0.00193084
-0.00146263
-0.0010104
-0.000590946
-0.000250639
-0.0549088
-0.0609014
-0.0664
-0.0713607
-0.0757838
-0.0797064
-0.0831888
-0.0862983
-0.0890984
-0.0916388
-0.0939479
-0.0960323
-0.0978835
-0.0994854
-0.100821
-0.101878
-0.102647
-0.103126
-0.103315
-0.10322
-0.102851
-0.102223
-0.101356
-0.100278
-0.0990149
-0.0975905
-0.0960237
-0.0943313
-0.0925287
-0.0906291
-0.088644
-0.0865828
-0.0844526
-0.0822588
-0.0800048
-0.0776929
-0.075325
-0.0729023
-0.0704269
-0.0679012
-0.065329
-0.0627157
-0.0600682
-0.0573961
-0.0547112
-0.0520273
-0.0493588
-0.0467173
-0.0441189
-0.0415848
-0.0391333
-0.0367773
-0.0345233
-0.0323726
-0.0303233
-0.0283713
-0.0265119
-0.0247447
-0.023079
-0.0215304
-0.0201123
-0.0188274
-0.0176678
-0.0166121
-0.0156027
-0.014603
-0.0136082
-0.0126359
-0.0117199
-0.0108841
-0.0101238
-0.00943349
-0.00879065
-0.00817346
-0.00757176
-0.00698427
-0.00641299
-0.00586418
-0.00533751
-0.00482877
-0.0043334
-0.00384765
-0.00336859
-0.00289464
-0.00242484
-0.00195941
-0.0015003
-0.00105745
-0.000646645
-0.000255576
-0.0534434
-0.0594111
-0.0648856
-0.0698589
-0.0743557
-0.0784173
-0.0820922
-0.0854279
-0.0884666
-0.0912425
-0.0937753
-0.0960694
-0.0981149
-0.0998934
-0.101384
-0.102567
-0.103428
-0.103959
-0.104159
-0.104037
-0.103606
-0.102889
-0.101913
-0.100704
-0.0992913
-0.0977043
-0.0959728
-0.0941222
-0.0921734
-0.0901429
-0.0880434
-0.085884
-0.0836709
-0.0814082
-0.0790984
-0.0767428
-0.0743421
-0.0718973
-0.0694097
-0.0668813
-0.0643154
-0.061717
-0.0590927
-0.0564516
-0.0538049
-0.0511668
-0.0485543
-0.0459889
-0.0434926
-0.0410841
-0.0387782
-0.0365833
-0.0344998
-0.0325189
-0.0306242
-0.0287971
-0.0270231
-0.0252876
-0.0235941
-0.0219633
-0.0204241
-0.0190052
-0.0177221
-0.0165583
-0.0154938
-0.0144983
-0.0135548
-0.0126545
-0.0117989
-0.0109958
-0.0102511
-0.00955477
-0.00889206
-0.00825237
-0.00763203
-0.00703212
-0.00645474
-0.00590056
-0.00536787
-0.00485366
-0.00435386
-0.0038647
-0.00338348
-0.0029091
-0.00244165
-0.00198209
-0.00153214
-0.00109745
-0.000684649
-0.000263283
-0.0525661
-0.058557
-0.0640382
-0.0690364
-0.0735917
-0.0777469
-0.0815456
-0.0850308
-0.0882381
-0.0911888
-0.0938906
-0.096339
-0.0985202
-0.100414
-0.102
-0.103258
-0.104173
-0.104737
-0.104952
-0.104825
-0.104376
-0.103628
-0.102613
-0.101361
-0.0999072
-0.0982817
-0.0965141
-0.09463
-0.092651
-0.0905945
-0.0884735
-0.0862976
-0.0840732
-0.0818044
-0.0794935
-0.0771416
-0.0747493
-0.0723172
-0.069846
-0.0673373
-0.0647938
-0.0622195
-0.0596201
-0.0570034
-0.0543793
-0.05176
-0.0491602
-0.0465962
-0.0440852
-0.0416436
-0.0392859
-0.0370223
-0.0348577
-0.0327907
-0.0308157
-0.0289257
-0.0270991
-0.0253361
-0.0236441
-0.0220396
-0.0205414
-0.0191617
-0.0179056
-0.0167578
-0.0156877
-0.0146689
-0.0136904
-0.0127548
-0.0118729
-0.0110526
-0.0102933
-0.00958606
-0.00891666
-0.00827418
-0.0076538
-0.00705495
-0.00647856
-0.00592487
-0.00539187
-0.00487605
-0.00437356
-0.00388127
-0.00339723
-0.00292103
-0.00245365
-0.00199708
-0.00155326
-0.00112372
-0.000706593
-0.000272506
)
;

boundaryField
{
    fixedWalls
    {
        type            zeroGradient;
    }
    inflowWall
    {
        type            zeroGradient;
    }
    outflowWall
    {
        type            fixedValue;
        value           uniform 0;
    }
    frontAndBack
    {
        type            empty;
    }
}


// ************************************************************************* //
