/*--------------------------------*- C++ -*----------------------------------*\
| =========                 |                                                 |
| \\      /  F ield         | OpenFOAM: The Open Source CFD Toolbox           |
|  \\    /   O peration     | Version:  2306                                  |
|   \\  /    A nd           | Website:  www.openfoam.com                      |
|    \\/     M anipulation  |                                                 |
\*---------------------------------------------------------------------------*/
FoamFile
{
    version     2.0;
    format      ascii;
    arch        "LSB;label=32;scalar=64";
    class       surfaceScalarField;
    location    "10";
    object      phi;
}
// * * * * * * * * * * * * * * * * * * * * * * * * * * * * * * * * * * * * * //

dimensions      [0 3 -1 0 0 0 0];

oriented        oriented;

internalField   nonuniform List<scalar> 
3680
(
4.93468e-05
6.53225e-07
4.7974e-05
1.3728e-06
4.6697e-05
1.27693e-06
4.52596e-05
1.43741e-06
4.41205e-05
1.13909e-06
4.2716e-05
1.40456e-06
4.173e-05
9.86013e-07
4.04267e-05
1.30329e-06
3.97901e-05
6.36573e-07
9.91694e-07
3.87984e-05
5.03392e-05
3.13976e-07
5.08676e-05
8.44498e-07
5.11317e-05
1.01275e-06
5.14642e-05
1.10493e-06
5.15913e-05
1.01199e-06
5.19731e-05
1.02275e-06
5.20573e-05
9.01828e-07
5.25064e-05
8.54167e-07
5.24996e-05
6.43434e-07
4.39049e-07
5.30522e-05
5.01633e-05
1.50712e-07
5.05552e-05
4.52569e-07
5.09755e-05
5.92407e-07
5.14188e-05
6.61644e-07
5.18156e-05
6.1526e-07
5.22661e-05
5.72184e-07
5.26928e-05
4.75156e-07
5.31614e-05
3.85514e-07
5.35777e-05
2.27198e-07
2.20248e-08
5.39947e-05
5.00932e-05
5.75002e-08
5.03763e-05
1.69524e-07
5.07338e-05
2.34865e-07
5.11456e-05
2.49819e-07
5.1549e-05
2.11882e-07
5.19712e-05
1.50022e-07
5.2382e-05
6.4337e-08
5.28098e-05
-4.22669e-08
5.32195e-05
-1.82554e-07
-3.50262e-07
5.35918e-05
5.00738e-05
-1.6286e-08
5.02912e-05
-4.78917e-08
5.0611e-05
-8.49222e-08
5.09885e-05
-1.27731e-07
5.138e-05
-1.79558e-07
5.17739e-05
-2.43871e-07
5.21644e-05
-3.26238e-07
5.25509e-05
-4.28715e-07
5.29207e-05
-5.52366e-07
-6.96636e-07
5.32671e-05
5.00732e-05
-8.94589e-08
5.02829e-05
-2.57659e-07
5.05978e-05
-3.99775e-07
5.09653e-05
-4.9525e-07
5.13444e-05
-5.58694e-07
5.17217e-05
-6.21145e-07
5.20917e-05
-6.96188e-07
5.2453e-05
-7.90049e-07
5.2803e-05
-9.02328e-07
-1.02872e-06
5.31351e-05
5.00942e-05
-1.83675e-07
5.03556e-05
-5.19081e-07
5.06984e-05
-7.42509e-07
5.10685e-05
-8.65328e-07
5.1441e-05
-9.31263e-07
5.18051e-05
-9.85187e-07
5.21621e-05
-1.05325e-06
5.25139e-05
-1.14183e-06
5.28553e-05
-1.24373e-06
-1.3508e-06
5.31774e-05
5.01665e-05
-3.50175e-07
5.05181e-05
-8.70711e-07
5.0921e-05
-1.14542e-06
5.13e-05
-1.24433e-06
5.16492e-05
-1.28038e-06
5.19869e-05
-1.32297e-06
5.23213e-05
-1.38763e-06
5.26434e-05
-1.46389e-06
5.29394e-05
-1.53971e-06
-1.6096e-06
5.31982e-05
5.03676e-05
-7.17822e-07
5.08006e-05
-1.30362e-06
5.10995e-05
-1.44434e-06
5.12773e-05
-1.42215e-06
5.14063e-05
-1.40941e-06
5.15056e-05
-1.4223e-06
5.15579e-05
-1.43989e-06
5.15465e-05
-1.45248e-06
5.14632e-05
-1.45641e-06
-1.455e-06
5.13086e-05
4.92822e-05
4.79786e-05
4.65342e-05
4.51121e-05
4.37027e-05
4.22804e-05
4.08405e-05
3.9388e-05
3.79316e-05
3.64766e-05
1.42801e-08
-1.42801e-08
1.04472e-08
3.83235e-09
-8.5082e-09
1.89553e-08
-3.72666e-08
2.87585e-08
-7.29995e-08
3.5733e-08
-1.14424e-07
4.1425e-08
-1.61149e-07
4.67241e-08
-2.1292e-07
5.17712e-08
-2.69446e-07
5.65262e-08
-3.30391e-07
6.09453e-08
-3.95388e-07
6.49971e-08
-4.64056e-07
6.86677e-08
-5.36011e-07
7.19554e-08
-6.10879e-07
7.48671e-08
-6.88295e-07
7.7416e-08
-7.67916e-07
7.96212e-08
-8.49421e-07
8.15049e-08
-9.3251e-07
8.30894e-08
-1.01691e-06
8.43977e-08
-1.10237e-06
8.54621e-08
-1.18869e-06
8.63212e-08
-1.27571e-06
8.70186e-08
-1.36331e-06
8.76019e-08
-1.45143e-06
8.81217e-08
-1.54006e-06
8.86305e-08
-1.62925e-06
8.91854e-08
-1.7191e-06
8.98495e-08
-1.80979e-06
9.06912e-08
-1.90157e-06
9.17806e-08
-1.99476e-06
9.31887e-08
-2.08974e-06
9.49853e-08
-2.18698e-06
9.72342e-08
-2.28697e-06
9.99935e-08
-2.3903e-06
1.03324e-07
-2.4976e-06
1.07308e-07
-2.60966e-06
1.12053e-07
-2.72734e-06
1.17686e-07
-2.8517e-06
1.24352e-07
-2.98394e-06
1.32244e-07
-3.12553e-06
1.41594e-07
-3.27823e-06
1.52702e-07
-3.44419e-06
1.65953e-07
-3.62598e-06
1.81797e-07
-3.82663e-06
2.00647e-07
-4.04935e-06
2.22714e-07
-4.29722e-06
2.47869e-07
-4.5727e-06
2.75481e-07
-4.87706e-06
3.04365e-07
-5.20985e-06
3.32787e-07
-5.56829e-06
3.58438e-07
-5.94657e-06
3.78282e-07
-6.3357e-06
3.89133e-07
-6.72394e-06
3.88235e-07
-7.09783e-06
3.73892e-07
-7.44241e-06
3.44586e-07
-7.7414e-06
2.98981e-07
-7.97939e-06
2.37991e-07
-8.14838e-06
1.68992e-07
-8.23494e-06
8.65584e-08
-8.22682e-06
-8.11174e-09
-8.12494e-06
-1.01886e-07
-7.92544e-06
-1.99495e-07
-7.62686e-06
-2.98577e-07
-7.23223e-06
-3.94636e-07
-6.74574e-06
-4.86493e-07
-6.17483e-06
-5.70905e-07
-5.52716e-06
-6.47667e-07
-4.81113e-06
-7.16032e-07
-4.03859e-06
-7.72543e-07
-3.21657e-06
-8.2202e-07
-2.36134e-06
-8.55232e-07
-1.47757e-06
-8.83764e-07
-5.82301e-07
-8.95273e-07
3.22809e-07
-9.05109e-07
1.22025e-06
-8.97445e-07
2.11377e-06
-8.9352e-07
2.98347e-06
-8.697e-07
3.83926e-06
-8.55788e-07
4.65981e-06
-8.20552e-07
5.46155e-06
-8.01732e-07
6.22143e-06
-7.59882e-07
6.96293e-06
-7.415e-07
7.66078e-06
-6.97851e-07
8.34585e-06
-6.8507e-07
8.99026e-06
-6.44415e-07
9.63263e-06
-6.42361e-07
1.02421e-05
-6.09485e-07
1.08678e-05
-6.25658e-07
1.14746e-05
-6.06821e-07
-6.68905e-07
-1.13456e-08
-2.9339e-09
-6.57776e-08
5.82646e-08
-1.50385e-07
1.03563e-07
-2.5692e-07
1.35294e-07
-3.80529e-07
1.59341e-07
-5.18832e-07
1.79728e-07
-6.70171e-07
1.98063e-07
-8.33057e-07
2.14657e-07
-1.00607e-06
2.29537e-07
-1.18783e-06
2.42705e-07
-1.37701e-06
2.5418e-07
-1.57235e-06
2.64007e-07
-1.77266e-06
2.72263e-07
-1.97684e-06
2.79049e-07
-2.18391e-06
2.84485e-07
-2.39299e-06
2.88704e-07
-2.60333e-06
2.91847e-07
-2.81429e-06
2.94051e-07
-3.02535e-06
2.95452e-07
-3.23609e-06
2.96206e-07
-3.44625e-06
2.96478e-07
-3.65567e-06
2.96442e-07
-3.86434e-06
2.96274e-07
-4.07237e-06
2.96151e-07
-4.27999e-06
2.96251e-07
-4.48756e-06
2.96751e-07
-4.69555e-06
2.97839e-07
-4.90456e-06
2.99705e-07
-5.11532e-06
3.02533e-07
-5.32862e-06
3.06495e-07
-5.54538e-06
3.11748e-07
-5.76657e-06
3.18422e-07
-5.99319e-06
3.26616e-07
-6.22628e-06
3.36407e-07
-6.46685e-06
3.4788e-07
-6.71593e-06
3.61137e-07
-6.97449e-06
3.76244e-07
-7.24334e-06
3.93203e-07
-7.5231e-06
4.12001e-07
-7.81409e-06
4.32581e-07
-8.11623e-06
4.54845e-07
-8.42896e-06
4.78684e-07
-8.75112e-06
5.0396e-07
-9.08082e-06
5.30346e-07
-9.41514e-06
5.57029e-07
-9.74995e-06
5.82676e-07
-1.00797e-05
6.05282e-07
-1.03976e-05
6.22232e-07
-1.06953e-05
6.30441e-07
-1.09635e-05
6.26716e-07
-1.11922e-05
6.06934e-07
-1.13703e-05
5.67237e-07
-1.14864e-05
5.04308e-07
-1.15298e-05
4.17281e-07
-1.14912e-05
3.06061e-07
-1.13628e-05
1.70539e-07
-1.11295e-05
4.68939e-09
-1.07987e-05
-1.61813e-07
-1.03638e-05
-3.48359e-07
-9.82672e-06
-5.45167e-07
-9.1805e-06
-7.48099e-07
-8.43091e-06
-9.49093e-07
-7.58134e-06
-1.14815e-06
-6.63875e-06
-1.33722e-06
-5.60943e-06
-1.51581e-06
-4.50345e-06
-1.67688e-06
-3.3293e-06
-1.82182e-06
-2.09839e-06
-1.94694e-06
-8.20821e-07
-2.05011e-06
4.90208e-07
-2.13305e-06
1.82583e-06
-2.19085e-06
3.17678e-06
-2.23472e-06
4.53106e-06
-2.24955e-06
5.88421e-06
-2.25826e-06
7.22184e-06
-2.23507e-06
8.54403e-06
-2.21571e-06
9.8369e-06
-2.16257e-06
1.11046e-05
-2.12353e-06
1.23337e-05
-2.04963e-06
1.35329e-05
-2.00087e-06
1.46887e-05
-1.91576e-06
1.58148e-05
-1.86757e-06
1.68975e-05
-1.78057e-06
1.79557e-05
-1.74322e-06
1.89744e-05
-1.66315e-06
1.99795e-05
-1.64748e-06
2.09533e-05
-1.58329e-06
2.19312e-05
-1.60356e-06
2.28901e-05
-1.56567e-06
-1.63118e-06
-5.08e-08
4.7866e-08
-1.8858e-07
1.96044e-07
-3.72452e-07
2.87435e-07
-5.83437e-07
3.46279e-07
-8.1258e-07
3.88484e-07
-1.05742e-06
4.24567e-07
-1.31627e-06
4.56911e-07
-1.58651e-06
4.84904e-07
-1.86547e-06
5.08494e-07
-2.15063e-06
5.27861e-07
-2.4397e-06
5.43252e-07
-2.73067e-06
5.54976e-07
-3.0218e-06
5.63394e-07
-3.31163e-06
5.68882e-07
-3.59896e-06
5.7182e-07
-3.88285e-06
5.72585e-07
-4.16254e-06
5.71538e-07
-4.4375e-06
5.69017e-07
-4.70734e-06
5.65286e-07
-4.97181e-06
5.60678e-07
-5.23085e-06
5.55514e-07
-5.4845e-06
5.50096e-07
-5.73294e-06
5.4471e-07
-5.97641e-06
5.39624e-07
-6.21524e-06
5.35081e-07
-6.44979e-06
5.31306e-07
-6.68047e-06
5.28519e-07
-6.9077e-06
5.26929e-07
-7.13187e-06
5.26708e-07
-7.35336e-06
5.27981e-07
-7.57244e-06
5.30833e-07
-7.78931e-06
5.35285e-07
-8.00398e-06
5.41287e-07
-8.21628e-06
5.48712e-07
-8.42581e-06
5.57411e-07
-8.63195e-06
5.67268e-07
-8.8338e-06
5.78095e-07
-9.03007e-06
5.8948e-07
-9.21908e-06
6.0101e-07
-9.39867e-06
6.12168e-07
-9.56615e-06
6.22325e-07
-9.71823e-06
6.30766e-07
-9.85104e-06
6.36772e-07
-9.9602e-06
6.39509e-07
-1.00407e-05
6.3751e-07
-1.00869e-05
6.28868e-07
-1.00926e-05
6.11038e-07
-1.00514e-05
5.8101e-07
-9.95597e-06
5.35003e-07
-9.80005e-06
4.70791e-07
-9.57767e-06
3.84555e-07
-9.28387e-06
2.73434e-07
-8.91272e-06
1.33159e-07
-8.4591e-06
-3.63319e-08
-7.92508e-06
-2.27967e-07
-7.30799e-06
-4.46545e-07
-6.61227e-06
-6.91034e-07
-5.82455e-06
-9.49536e-07
-4.95059e-06
-1.22232e-06
-3.99705e-06
-1.49871e-06
-2.96546e-06
-1.77969e-06
-1.86199e-06
-2.05256e-06
-6.89894e-07
-2.32024e-06
5.40795e-07
-2.56791e-06
1.82475e-06
-2.79976e-06
3.1526e-06
-3.00473e-06
4.51923e-06
-3.18846e-06
5.91221e-06
-3.33992e-06
7.32654e-06
-3.46444e-06
8.75142e-06
-3.55793e-06
1.01803e-05
-3.61975e-06
1.16033e-05
-3.65767e-06
1.30143e-05
-3.66057e-06
1.44051e-05
-3.64903e-06
1.57712e-05
-3.60125e-06
1.71063e-05
-3.5508e-06
1.84077e-05
-3.46399e-06
1.96718e-05
-3.38756e-06
2.08969e-05
-3.27477e-06
2.20827e-05
-3.18661e-06
2.32281e-05
-3.06122e-06
2.43363e-05
-2.97572e-06
2.54063e-05
-2.85059e-06
2.64451e-05
-2.78198e-06
2.74511e-05
-2.66917e-06
2.84353e-05
-2.63171e-06
2.93954e-05
-2.54338e-06
3.0344e-05
-2.55213e-06
3.12778e-05
-2.49947e-06
-2.57617e-06
-1.39003e-07
1.86869e-07
-3.94271e-07
4.51313e-07
-6.89054e-07
5.82217e-07
-1.00099e-06
6.58219e-07
-1.32779e-06
7.15282e-07
-1.66652e-06
7.63293e-07
-2.01211e-06
8.02507e-07
-2.35979e-06
8.32577e-07
-2.70547e-06
8.54175e-07
-3.04608e-06
8.68473e-07
-3.37912e-06
8.76289e-07
-3.70267e-06
8.78529e-07
-4.01538e-06
8.76105e-07
-4.31631e-06
8.69813e-07
-4.60486e-06
8.60365e-07
-4.88068e-06
8.48409e-07
-5.14366e-06
8.34516e-07
-5.39381e-06
8.19165e-07
-5.63128e-06
8.02755e-07
-5.85629e-06
7.85689e-07
-6.06911e-06
7.68338e-07
-6.27005e-06
7.51028e-07
-6.45938e-06
7.34043e-07
-6.63739e-06
7.17634e-07
-6.8043e-06
7.01994e-07
-6.96026e-06
6.8727e-07
-7.10533e-06
6.73585e-07
-7.23947e-06
6.6107e-07
-7.36254e-06
6.49773e-07
-7.47423e-06
6.39673e-07
-7.57408e-06
6.30688e-07
-7.66145e-06
6.22656e-07
-7.73549e-06
6.15327e-07
-7.79512e-06
6.08337e-07
-7.83896e-06
6.01252e-07
-7.86539e-06
5.93703e-07
-7.87269e-06
5.85388e-07
-7.85873e-06
5.75519e-07
-7.82106e-06
5.63342e-07
-7.75689e-06
5.48002e-07
-7.66305e-06
5.2848e-07
-7.53597e-06
5.03688e-07
-7.37151e-06
4.72308e-07
-7.16572e-06
4.33719e-07
-6.91438e-06
3.86172e-07
-6.61308e-06
3.27568e-07
-6.25709e-06
2.55047e-07
-5.84254e-06
1.66463e-07
-5.36398e-06
5.64406e-08
-4.82007e-06
-7.31136e-08
-4.20915e-06
-2.26368e-07
-3.52958e-06
-4.06137e-07
-2.78058e-06
-6.15842e-07
-1.96488e-06
-8.5203e-07
-1.07648e-06
-1.11637e-06
-1.20821e-07
-1.4022e-06
9.00121e-07
-1.71198e-06
1.98162e-06
-2.03104e-06
3.12307e-06
-2.36376e-06
4.31857e-06
-2.69421e-06
5.56651e-06
-3.02763e-06
6.85891e-06
-3.34496e-06
8.19317e-06
-3.65451e-06
9.56017e-06
-3.93491e-06
1.09576e-05
-4.19715e-06
1.2374e-05
-4.42113e-06
1.38052e-05
-4.61975e-06
1.52411e-05
-4.77576e-06
1.6677e-05
-4.90033e-06
1.81023e-05
-4.98326e-06
1.95142e-05
-5.03164e-06
2.09009e-05
-5.04439e-06
2.22626e-05
-5.02226e-06
2.35876e-05
-4.97404e-06
2.48789e-05
-4.89253e-06
2.61256e-05
-4.7975e-06
2.73333e-05
-4.67166e-06
2.84925e-05
-4.54682e-06
2.96111e-05
-4.39333e-06
3.06811e-05
-4.25663e-06
3.17122e-05
-4.09229e-06
3.26978e-05
-3.96137e-06
3.36493e-05
-3.80203e-06
3.45609e-05
-3.69363e-06
3.54457e-05
-3.55393e-06
3.62979e-05
-3.48395e-06
3.71323e-05
-3.37774e-06
3.79422e-05
-3.36209e-06
3.87472e-05
-3.30445e-06
-3.36414e-06
-1.96012e-07
3.82881e-07
-5.67246e-07
8.22547e-07
-9.85732e-07
1.0007e-06
-1.4131e-06
1.08559e-06
-1.83305e-06
1.13523e-06
-2.23689e-06
1.16713e-06
-2.62091e-06
1.18653e-06
-2.98406e-06
1.19572e-06
-3.32461e-06
1.19473e-06
-3.6412e-06
1.18506e-06
-3.93325e-06
1.16834e-06
-4.20077e-06
1.14604e-06
-4.44413e-06
1.11947e-06
-4.66401e-06
1.08969e-06
-4.86125e-06
1.0576e-06
-5.03678e-06
1.02394e-06
-5.19159e-06
9.89324e-07
-5.32665e-06
9.54223e-07
-5.44282e-06
9.18922e-07
-5.5409e-06
8.83776e-07
-5.62164e-06
8.4908e-07
-5.68566e-06
8.15044e-07
-5.73344e-06
7.81821e-07
-5.76534e-06
7.49532e-07
-5.78156e-06
7.1822e-07
-5.78215e-06
6.87859e-07
-5.76693e-06
6.58366e-07
-5.7356e-06
6.29738e-07
-5.68769e-06
6.01866e-07
-5.62254e-06
5.74524e-07
-5.5393e-06
5.47448e-07
-5.43693e-06
5.20285e-07
-5.3142e-06
4.92589e-07
-5.16966e-06
4.63796e-07
-5.00162e-06
4.33219e-07
-4.80804e-06
4.00124e-07
-4.58716e-06
3.64501e-07
-4.3368e-06
3.25158e-07
-4.05453e-06
2.8108e-07
-3.73776e-06
2.31227e-07
-3.38351e-06
1.7423e-07
-2.98867e-06
1.08846e-07
-2.54898e-06
3.26192e-08
-2.0627e-06
-5.25583e-08
-1.52691e-06
-1.49614e-07
-9.38012e-07
-2.61334e-07
-2.92872e-07
-3.90093e-07
4.1084e-07
-5.37249e-07
1.17379e-06
-7.06511e-07
1.99788e-06
-8.97204e-07
2.88547e-06
-1.11396e-06
3.83446e-06
-1.35513e-06
4.84383e-06
-1.62521e-06
5.91002e-06
-1.91822e-06
7.03179e-06
-2.23815e-06
8.20386e-06
-2.57427e-06
9.4237e-06
-2.93181e-06
1.06866e-05
-3.2939e-06
1.199e-05
-3.66724e-06
1.33274e-05
-4.03154e-06
1.46955e-05
-4.39572e-06
1.60866e-05
-4.73613e-06
1.74964e-05
-5.06433e-06
1.89168e-05
-5.35525e-06
2.03427e-05
-5.62306e-06
2.17651e-05
-5.84355e-06
2.31789e-05
-6.03354e-06
2.45745e-05
-6.1714e-06
2.59489e-05
-6.27471e-06
2.72917e-05
-6.32604e-06
2.86028e-05
-6.34277e-06
2.98712e-05
-6.31272e-06
3.11003e-05
-6.25134e-06
3.22787e-05
-6.1525e-06
3.34138e-05
-6.02765e-06
3.4494e-05
-5.87767e-06
3.55302e-05
-5.70786e-06
3.65105e-05
-5.5271e-06
3.74493e-05
-5.3322e-06
3.83341e-05
-5.14142e-06
3.91826e-05
-4.94078e-06
3.9981e-05
-4.75971e-06
4.07501e-05
-4.57111e-06
4.14742e-05
-4.41781e-06
4.21774e-05
-4.2571e-06
4.28415e-05
-4.14805e-06
4.34934e-05
-4.02962e-06
4.41119e-05
-3.98064e-06
4.47262e-05
-3.9187e-06
-3.95149e-06
-4.21649e-07
8.0453e-07
-9.61292e-07
1.36219e-06
-1.45356e-06
1.49297e-06
-1.88645e-06
1.51848e-06
-2.2814e-06
1.53018e-06
-2.64364e-06
1.52937e-06
-2.96873e-06
1.51162e-06
-3.25085e-06
1.47784e-06
-3.4867e-06
1.43059e-06
-3.6786e-06
1.37695e-06
-3.82967e-06
1.31942e-06
-3.94309e-06
1.25946e-06
-4.02195e-06
1.19832e-06
-4.06915e-06
1.1369e-06
-4.08739e-06
1.07584e-06
-4.0791e-06
1.01566e-06
-4.04648e-06
9.56696e-07
-3.99149e-06
8.99238e-07
-3.91573e-06
8.43162e-07
-3.82057e-06
7.88616e-07
-3.70717e-06
7.35678e-07
-3.57644e-06
6.84319e-07
-3.42904e-06
6.34418e-07
-3.2654e-06
5.85889e-07
-3.08571e-06
5.38528e-07
-2.88992e-06
4.92071e-07
-2.67767e-06
4.46111e-07
-2.44849e-06
4.0056e-07
-2.2017e-06
3.55077e-07
-1.93634e-06
3.09161e-07
-1.65129e-06
2.62398e-07
-1.34525e-06
2.14254e-07
-1.01676e-06
1.64098e-07
-6.64084e-07
1.11117e-07
-2.85112e-07
5.42461e-08
1.22957e-07
-7.94402e-09
5.59756e-07
-7.22982e-08
1.02865e-06
-1.43739e-07
1.5321e-06
-2.22371e-07
2.07246e-06
-3.09133e-07
2.65221e-06
-4.05515e-07
3.2736e-06
-5.12543e-07
3.93801e-06
-6.31795e-07
4.64926e-06
-7.63808e-07
5.41061e-06
-9.10968e-07
6.22357e-06
-1.07429e-06
7.09005e-06
-1.25657e-06
8.0108e-06
-1.458e-06
8.98658e-06
-1.68229e-06
1.00172e-05
-1.92783e-06
1.11021e-05
-2.19884e-06
1.22386e-05
-2.49161e-06
1.34243e-05
-2.81095e-06
1.4655e-05
-3.14888e-06
1.59271e-05
-3.51025e-06
1.72351e-05
-3.88228e-06
1.85739e-05
-4.27064e-06
1.99378e-05
-4.65777e-06
2.1321e-05
-5.05044e-06
2.27168e-05
-5.4274e-06
2.41187e-05
-5.79752e-06
2.55192e-05
-6.13671e-06
2.69115e-05
-6.45657e-06
2.82879e-05
-6.73163e-06
2.96418e-05
-6.97701e-06
3.09656e-05
-7.16735e-06
3.22541e-05
-7.32199e-06
3.34998e-05
-7.41709e-06
3.47005e-05
-7.47547e-06
3.58495e-05
-7.47499e-06
3.69477e-05
-7.44105e-06
3.79887e-05
-7.35364e-06
3.89769e-05
-7.23955e-06
3.99056e-05
-7.08124e-06
4.07832e-05
-6.90522e-06
4.16022e-05
-6.69671e-06
4.23745e-05
-6.48017e-06
4.30915e-05
-6.24404e-06
4.37682e-05
-6.00894e-06
4.43941e-05
-5.76731e-06
4.49876e-05
-5.53424e-06
4.55353e-05
-5.30739e-06
4.60588e-05
-5.09465e-06
4.65415e-05
-4.90052e-06
4.70084e-05
-4.72396e-06
4.74386e-05
-4.57831e-06
4.78606e-05
-4.4516e-06
4.82485e-05
-4.36855e-06
4.86336e-05
-4.30378e-06
-4.30311e-06
-2.66395e-07
1.07093e-06
-8.60006e-07
1.9558e-06
-1.4776e-06
2.11056e-06
-1.99417e-06
2.03505e-06
-2.3827e-06
1.91871e-06
-2.64627e-06
1.79295e-06
-2.80282e-06
1.66817e-06
-2.87286e-06
1.54788e-06
-2.87379e-06
1.43151e-06
-2.81687e-06
1.32003e-06
-2.71051e-06
1.21306e-06
-2.56152e-06
1.11048e-06
-2.3758e-06
1.0126e-06
-2.1584e-06
9.19489e-07
-1.91356e-06
8.31007e-07
-1.64492e-06
7.47012e-07
-1.35548e-06
6.67261e-07
-1.04788e-06
5.91635e-07
-7.239e-07
5.19184e-07
-3.85277e-07
4.49993e-07
-3.32941e-08
3.83696e-07
3.31207e-07
3.19818e-07
7.07632e-07
2.57993e-07
1.09568e-06
1.97837e-07
1.49538e-06
1.38834e-07
1.90719e-06
8.02629e-08
2.33231e-06
2.09836e-08
2.77087e-06
-3.79986e-08
3.22379e-06
-9.78376e-08
3.69264e-06
-1.59696e-07
4.17892e-06
-2.23881e-07
4.68429e-06
-2.91109e-07
5.21049e-06
-3.62106e-07
5.7594e-06
-4.37789e-07
6.33259e-06
-5.18945e-07
6.93097e-06
-6.06324e-07
7.55913e-06
-7.00458e-07
8.21824e-06
-8.02851e-07
8.91042e-06
-9.14553e-07
9.6379e-06
-1.03662e-06
1.04026e-05
-1.17024e-06
1.12066e-05
-1.31651e-06
1.20517e-05
-1.47686e-06
1.294e-05
-1.6521e-06
1.38729e-05
-1.8439e-06
1.48515e-05
-2.05293e-06
1.58763e-05
-2.28139e-06
1.69474e-05
-2.52904e-06
1.80635e-05
-2.79844e-06
1.92234e-05
-3.08773e-06
2.04243e-05
-3.3997e-06
2.16629e-05
-3.73021e-06
2.29342e-05
-4.08221e-06
2.42334e-05
-4.44815e-06
2.55538e-05
-4.83065e-06
2.68895e-05
-5.21795e-06
2.82319e-05
-5.61301e-06
2.95746e-05
-6.00049e-06
3.09085e-05
-6.38438e-06
3.2227e-05
-6.74591e-06
3.35209e-05
-7.09136e-06
3.47835e-05
-7.3994e-06
3.60067e-05
-7.67973e-06
3.71846e-05
-7.90956e-06
3.83109e-05
-8.10331e-06
3.93809e-05
-8.23734e-06
4.03907e-05
-8.33181e-06
4.13371e-05
-8.36346e-06
4.222e-05
-8.35834e-06
4.30378e-05
-8.29282e-06
4.37937e-05
-8.19691e-06
4.44866e-05
-8.04653e-06
4.51224e-05
-7.87544e-06
4.57002e-05
-7.65904e-06
4.62285e-05
-7.43352e-06
4.67053e-05
-7.17352e-06
4.71415e-05
-6.91629e-06
4.75331e-05
-6.63572e-06
4.78931e-05
-6.36894e-06
4.82153e-05
-6.08945e-06
4.85142e-05
-5.83322e-06
4.87808e-05
-5.57398e-06
4.90319e-05
-5.34568e-06
4.92545e-05
-5.12317e-06
4.9468e-05
-4.93746e-06
4.96554e-05
-4.7657e-06
4.98386e-05
-4.63482e-06
4.99957e-05
-4.52562e-06
5.01511e-05
-4.45914e-06
-4.42576e-06
-1.49092e-06
2.56184e-06
-1.93996e-06
2.40485e-06
-2.10411e-06
2.27471e-06
-2.12025e-06
2.05118e-06
-2.00838e-06
1.80685e-06
-1.79255e-06
1.57712e-06
-1.49204e-06
1.36766e-06
-1.1215e-06
1.17734e-06
-6.93423e-07
1.00343e-06
-2.20434e-07
8.47043e-07
2.88322e-07
7.04301e-07
8.24724e-07
5.74081e-07
1.38206e-06
4.55266e-07
1.95515e-06
3.464e-07
2.53997e-06
2.46186e-07
3.13325e-06
1.53726e-07
3.73203e-06
6.84833e-08
4.33357e-06
-9.89971e-09
4.93967e-06
-8.69239e-08
5.54759e-06
-1.57922e-07
6.15659e-06
-2.25305e-07
6.76661e-06
-2.90207e-07
7.37794e-06
-3.53331e-07
7.99114e-06
-4.15361e-07
8.60679e-06
-4.76818e-07
9.22526e-06
-5.38213e-07
9.84779e-06
-6.01547e-07
1.04766e-05
-6.66778e-07
1.11133e-05
-7.34605e-07
1.17596e-05
-8.05997e-07
1.24173e-05
-8.81579e-07
1.30885e-05
-9.62229e-07
1.37749e-05
-1.04859e-06
1.44788e-05
-1.14167e-06
1.5202e-05
-1.24209e-06
1.59466e-05
-1.35095e-06
1.67149e-05
-1.46878e-06
1.75088e-05
-1.59675e-06
1.83299e-05
-1.73566e-06
1.91801e-05
-1.88678e-06
2.00607e-05
-2.05081e-06
2.09731e-05
-2.22893e-06
2.19181e-05
-2.4219e-06
2.28967e-05
-2.63072e-06
2.3909e-05
-2.85615e-06
2.49549e-05
-3.09886e-06
2.60331e-05
-3.35952e-06
2.71422e-05
-3.63814e-06
2.8279e-05
-3.93525e-06
2.94409e-05
-4.24962e-06
3.06225e-05
-4.58134e-06
3.18196e-05
-4.92733e-06
3.30246e-05
-5.28717e-06
3.4232e-05
-5.65556e-06
3.54327e-05
-6.03131e-06
3.66199e-05
-6.4052e-06
3.77834e-05
-6.77646e-06
3.89167e-05
-7.13382e-06
4.00095e-05
-7.47718e-06
4.10563e-05
-7.79273e-06
4.20478e-05
-8.08285e-06
4.29802e-05
-8.33175e-06
4.38464e-05
-8.5459e-06
4.46448e-05
-8.70799e-06
4.53714e-05
-8.82998e-06
4.60272e-05
-8.89314e-06
4.66113e-05
-8.91588e-06
4.71257e-05
-8.87788e-06
4.75738e-05
-8.8064e-06
4.79596e-05
-8.67863e-06
4.82887e-05
-8.526e-06
4.85649e-05
-8.32274e-06
4.87958e-05
-8.10631e-06
4.8984e-05
-7.84729e-06
4.91386e-05
-7.58814e-06
4.92603e-05
-7.29515e-06
4.93589e-05
-7.0149e-06
4.94325e-05
-6.70928e-06
4.94918e-05
-6.42825e-06
4.95318e-05
-6.12946e-06
4.95642e-05
-5.86566e-06
4.95809e-05
-5.59067e-06
4.95947e-05
-5.35952e-06
4.95943e-05
-5.12277e-06
4.9594e-05
-4.93713e-06
4.9579e-05
-4.75066e-06
4.95652e-05
-4.62103e-06
4.95344e-05
-4.49482e-06
4.95049e-05
-4.42964e-06
-4.36755e-06
-8.93226e-07
3.45507e-06
-7.40723e-07
2.25234e-06
-2.53532e-07
1.78752e-06
4.53703e-07
1.34394e-06
1.31573e-06
9.44822e-07
2.2665e-06
6.26352e-07
3.2596e-06
3.74561e-07
4.26746e-06
1.69471e-07
5.27734e-06
-6.43963e-09
6.27221e-06
-1.47831e-07
7.25656e-06
-2.8005e-07
8.22518e-06
-3.94535e-07
9.17502e-06
-4.94573e-07
1.01051e-05
-5.83687e-07
1.1015e-05
-6.6373e-07
1.19047e-05
-7.35948e-07
1.27747e-05
-8.01478e-07
1.36264e-05
-8.61608e-07
1.44575e-05
-9.18038e-07
1.52706e-05
-9.71035e-07
1.60668e-05
-1.02156e-06
1.68475e-05
-1.07087e-06
1.76141e-05
-1.11997e-06
1.83686e-05
-1.16977e-06
1.91126e-05
-1.22086e-06
1.98483e-05
-1.27393e-06
2.05777e-05
-1.33092e-06
2.13032e-05
-1.39228e-06
2.20271e-05
-1.45848e-06
2.27515e-05
-1.53042e-06
2.34787e-05
-1.60876e-06
2.42109e-05
-1.69443e-06
2.49502e-05
-1.78794e-06
2.56987e-05
-1.89016e-06
2.64582e-05
-2.00158e-06
2.72304e-05
-2.12319e-06
2.80171e-05
-2.25541e-06
2.88196e-05
-2.39923e-06
2.9639e-05
-2.55508e-06
3.04762e-05
-2.72404e-06
3.13318e-05
-2.90639e-06
3.2206e-05
-3.10313e-06
3.30984e-05
-3.31433e-06
3.40086e-05
-3.54087e-06
3.49352e-05
-3.78276e-06
3.58768e-05
-4.04044e-06
3.68302e-05
-4.31299e-06
3.77927e-05
-4.60063e-06
3.87596e-05
-4.90209e-06
3.97265e-05
-5.21658e-06
4.06871e-05
-5.54192e-06
4.16359e-05
-5.8761e-06
4.25647e-05
-6.21597e-06
4.34671e-05
-6.558e-06
4.43338e-05
-6.89797e-06
4.51591e-05
-7.23048e-06
4.59337e-05
-7.5511e-06
4.6653e-05
-7.85317e-06
4.73089e-05
-8.13301e-06
4.78989e-05
-8.3828e-06
4.84171e-05
-8.60103e-06
4.88644e-05
-8.779e-06
4.92373e-05
-8.91888e-06
4.95404e-05
-9.01102e-06
4.9773e-05
-9.0626e-06
4.99424e-05
-9.0625e-06
5.00507e-05
-9.02417e-06
5.01069e-05
-8.9341e-06
5.01147e-05
-8.81424e-06
5.00833e-05
-8.64726e-06
5.00179e-05
-8.46055e-06
4.99259e-05
-8.23074e-06
4.9813e-05
-7.9934e-06
4.9684e-05
-7.71827e-06
4.95448e-05
-7.44897e-06
4.93968e-05
-7.14715e-06
4.92466e-05
-6.86468e-06
4.90916e-05
-6.55428e-06
4.89395e-05
-6.27619e-06
4.87839e-05
-5.97381e-06
4.86341e-05
-5.71588e-06
4.84797e-05
-5.43631e-06
4.83326e-05
-5.21234e-06
4.81782e-05
-4.96843e-06
4.80311e-05
-4.79001e-06
4.78728e-05
-4.59238e-06
4.77204e-05
-4.46864e-06
4.75515e-05
-4.32592e-06
4.73858e-05
-4.26398e-06
-4.17804e-06
3.64401e-06
-1.88943e-07
6.36061e-06
-4.64256e-07
8.76211e-06
-6.13974e-07
1.08724e-05
-7.66307e-07
1.27343e-05
-9.17158e-07
1.44122e-05
-1.05156e-06
1.59508e-05
-1.164e-06
1.73676e-05
-1.24729e-06
1.86859e-05
-1.32479e-06
1.99309e-05
-1.39282e-06
2.11027e-05
-1.4518e-06
2.2211e-05
-1.50292e-06
2.32636e-05
-1.54717e-06
2.42655e-05
-1.58556e-06
2.52208e-05
-1.61903e-06
2.61332e-05
-1.64835e-06
2.70061e-05
-1.67437e-06
2.78424e-05
-1.69789e-06
2.86443e-05
-1.71997e-06
2.94149e-05
-1.74161e-06
3.0157e-05
-1.76367e-06
3.08732e-05
-1.7871e-06
3.15661e-05
-1.81288e-06
3.22383e-05
-1.84193e-06
3.28925e-05
-1.87507e-06
3.35318e-05
-1.91317e-06
3.4158e-05
-1.9572e-06
3.47737e-05
-2.00798e-06
3.53813e-05
-2.06603e-06
3.59829e-05
-2.132e-06
3.65805e-05
-2.20644e-06
3.71762e-05
-2.29013e-06
3.77719e-05
-2.38357e-06
3.83688e-05
-2.48707e-06
3.89683e-05
-2.60113e-06
3.95715e-05
-2.72641e-06
4.01793e-05
-2.86318e-06
4.07922e-05
-3.01207e-06
4.14103e-05
-3.17326e-06
4.20336e-05
-3.34735e-06
4.26616e-05
-3.53438e-06
4.32934e-05
-3.73485e-06
4.39275e-05
-3.94851e-06
4.45624e-05
-4.17569e-06
4.51954e-05
-4.41576e-06
4.58236e-05
-4.66868e-06
4.64438e-05
-4.93315e-06
4.70519e-05
-5.20876e-06
4.76433e-05
-5.49355e-06
4.82133e-05
-5.78651e-06
4.87561e-05
-6.0847e-06
4.92663e-05
-6.38637e-06
4.97379e-05
-6.68753e-06
5.01655e-05
-6.9856e-06
5.05432e-05
-7.27566e-06
5.08672e-05
-7.5545e-06
5.11328e-05
-7.81666e-06
5.13383e-05
-8.05871e-06
5.14808e-05
-8.27553e-06
5.15619e-05
-8.46389e-06
5.15809e-05
-8.61997e-06
5.15429e-05
-8.74108e-06
5.14496e-05
-8.82555e-06
5.13093e-05
-8.87069e-06
5.11246e-05
-8.87791e-06
5.0906e-05
-8.84389e-06
5.06561e-05
-8.77431e-06
5.03868e-05
-8.66479e-06
5.00991e-05
-8.52654e-06
4.98031e-05
-8.35122e-06
4.94986e-05
-8.15606e-06
4.91944e-05
-7.92659e-06
4.88889e-05
-7.68786e-06
4.85882e-05
-7.41762e-06
4.82899e-05
-7.15065e-06
4.79975e-05
-6.85473e-06
4.77089e-05
-6.57612e-06
4.74248e-05
-6.27018e-06
4.7145e-05
-5.99636e-06
4.68665e-05
-5.69527e-06
4.65922e-05
-5.44159e-06
4.63149e-05
-5.15899e-06
4.60419e-05
-4.93937e-06
4.57606e-05
-4.68712e-06
4.54838e-05
-4.51327e-06
4.51923e-05
-4.30086e-06
4.49053e-05
-4.18162e-06
4.45949e-05
-4.01557e-06
4.42868e-05
-3.95587e-06
-3.84392e-06
3.85868e-05
2.2696e-08
3.85494e-05
-4.2687e-07
3.86814e-05
-7.45958e-07
3.88986e-05
-9.83518e-07
3.91631e-05
-1.18164e-06
3.9469e-05
-1.35744e-06
3.98174e-05
-1.51241e-06
4.02095e-05
-1.63945e-06
4.06248e-05
-1.74011e-06
4.10543e-05
-1.82231e-06
4.14903e-05
-1.88778e-06
4.19275e-05
-1.94014e-06
4.23619e-05
-1.98151e-06
4.279e-05
-2.01367e-06
4.32092e-05
-2.03827e-06
4.36177e-05
-2.05683e-06
4.40141e-05
-2.07081e-06
4.43978e-05
-2.08158e-06
4.47684e-05
-2.09054e-06
4.51259e-05
-2.0991e-06
4.54708e-05
-2.10853e-06
4.58037e-05
-2.12001e-06
4.61255e-05
-2.1347e-06
4.64372e-05
-2.15367e-06
4.67401e-05
-2.17793e-06
4.70353e-05
-2.20839e-06
4.7324e-05
-2.24584e-06
4.7607e-05
-2.29105e-06
4.78856e-05
-2.34465e-06
4.81609e-05
-2.4072e-06
4.84336e-05
-2.47919e-06
4.87046e-05
-2.56108e-06
4.89742e-05
-2.65322e-06
4.92431e-05
-2.75594e-06
4.95115e-05
-2.86952e-06
4.97793e-05
-2.99426e-06
5.00465e-05
-3.13039e-06
5.03126e-05
-3.27815e-06
5.0577e-05
-3.43761e-06
5.08385e-05
-3.60894e-06
5.10962e-05
-3.79207e-06
5.13484e-05
-3.98699e-06
5.15933e-05
-4.1934e-06
5.18286e-05
-4.41104e-06
5.20521e-05
-4.63923e-06
5.22608e-05
-4.8774e-06
5.2452e-05
-5.12437e-06
5.26224e-05
-5.37913e-06
5.27687e-05
-5.63992e-06
5.28875e-05
-5.90525e-06
5.29754e-05
-6.17262e-06
5.30291e-05
-6.44003e-06
5.30458e-05
-6.70425e-06
5.3023e-05
-6.96285e-06
5.29592e-05
-7.21183e-06
5.28533e-05
-7.44862e-06
5.27054e-05
-7.66877e-06
5.25166e-05
-7.86993e-06
5.22888e-05
-8.04763e-06
5.2025e-05
-8.20019e-06
5.17285e-05
-8.32347e-06
5.14048e-05
-8.4173e-06
5.10573e-05
-8.47808e-06
5.06926e-05
-8.50601e-06
5.03133e-05
-8.49855e-06
4.9926e-05
-8.45659e-06
4.95311e-05
-8.37946e-06
4.91349e-05
-8.26862e-06
4.87345e-05
-8.12605e-06
4.83355e-05
-7.95226e-06
4.79322e-05
-7.75273e-06
4.75309e-05
-7.52528e-06
4.71235e-05
-7.28054e-06
4.67174e-05
-7.01149e-06
4.63028e-05
-6.73601e-06
4.58879e-05
-6.43984e-06
4.54626e-05
-6.15084e-06
4.5036e-05
-5.84361e-06
4.45984e-05
-5.55879e-06
4.41587e-05
-5.25552e-06
4.37085e-05
-4.99145e-06
4.32548e-05
-4.70524e-06
4.27922e-05
-4.47672e-06
4.23229e-05
-4.2179e-06
4.1847e-05
-4.03735e-06
4.13591e-05
-3.81296e-06
4.08674e-05
-3.68988e-06
4.03546e-05
-3.50274e-06
3.98403e-05
-3.44165e-06
-3.29711e-06
5.29741e-05
1.00755e-07
5.2876e-05
-3.28698e-07
5.28438e-05
-7.13811e-07
5.28643e-05
-1.00402e-06
5.2906e-05
-1.22333e-06
5.29497e-05
-1.40108e-06
5.29915e-05
-1.55428e-06
5.30395e-05
-1.68741e-06
5.30991e-05
-1.79968e-06
5.31679e-05
-1.89119e-06
5.32438e-05
-1.96363e-06
5.33233e-05
-2.0197e-06
5.3404e-05
-2.06222e-06
5.34841e-05
-2.0937e-06
5.35621e-05
-2.11628e-06
5.36371e-05
-2.1318e-06
5.37082e-05
-2.14198e-06
5.37751e-05
-2.14842e-06
5.38372e-05
-2.15272e-06
5.38945e-05
-2.15639e-06
5.39469e-05
-2.16091e-06
5.39945e-05
-2.16762e-06
5.40376e-05
-2.17779e-06
5.40765e-05
-2.19258e-06
5.41116e-05
-2.21303e-06
5.41433e-05
-2.24005e-06
5.41719e-05
-2.27443e-06
5.41977e-05
-2.31686e-06
5.4221e-05
-2.36797e-06
5.4242e-05
-2.42824e-06
5.4261e-05
-2.4981e-06
5.42777e-05
-2.57787e-06
5.42924e-05
-2.66784e-06
5.43047e-05
-2.76823e-06
5.43144e-05
-2.87924e-06
5.43211e-05
-3.00099e-06
5.43243e-05
-3.13361e-06
5.43233e-05
-3.27716e-06
5.43174e-05
-3.43165e-06
5.43055e-05
-3.59702e-06
5.42865e-05
-3.77316e-06
5.42594e-05
-3.95983e-06
5.42227e-05
-4.15671e-06
5.4175e-05
-4.36334e-06
5.41149e-05
-4.57909e-06
5.40406e-05
-4.80318e-06
5.39509e-05
-5.03461e-06
5.38439e-05
-5.27217e-06
5.37184e-05
-5.51439e-06
5.35727e-05
-5.75959e-06
5.34059e-05
-6.00579e-06
5.32167e-05
-6.25079e-06
5.30046e-05
-6.49222e-06
5.27692e-05
-6.72742e-06
5.25107e-05
-6.95335e-06
5.22293e-05
-7.16717e-06
5.19261e-05
-7.36555e-06
5.16018e-05
-7.54571e-06
5.12583e-05
-7.70416e-06
5.08967e-05
-7.83849e-06
5.05186e-05
-7.94538e-06
5.01246e-05
-8.02337e-06
4.97158e-05
-8.06927e-06
4.92923e-05
-8.08244e-06
4.88535e-05
-8.05981e-06
4.83991e-05
-8.00217e-06
4.79271e-05
-7.90743e-06
4.74369e-05
-7.77849e-06
4.69256e-05
-7.61466e-06
4.63937e-05
-7.42037e-06
4.58367e-05
-7.19579e-06
4.52579e-05
-6.94644e-06
4.46523e-05
-6.675e-06
4.4027e-05
-6.38617e-06
4.33756e-05
-6.08454e-06
4.27087e-05
-5.77298e-06
4.2018e-05
-5.46018e-06
4.13183e-05
-5.1439e-06
4.05984e-05
-4.83882e-06
3.98765e-05
-4.53369e-06
3.91381e-05
-4.25306e-06
3.84042e-05
-3.97126e-06
3.76563e-05
-3.72884e-06
3.69164e-05
-3.47801e-06
3.61641e-05
-3.28509e-06
3.54195e-05
-3.06832e-06
3.46644e-05
-2.93481e-06
3.39115e-05
-2.74987e-06
3.31528e-05
-2.68289e-06
-2.51944e-06
5.43136e-05
-2.18189e-07
5.44977e-05
-5.12754e-07
5.46026e-05
-8.18682e-07
5.46901e-05
-1.09153e-06