/*--------------------------------*- C++ -*----------------------------------*\
| =========                 |                                                 |
| \\      /  F ield         | OpenFOAM: The Open Source CFD Toolbox           |
|  \\    /   O peration     | Version:  2306                                  |
|   \\  /    A nd           | Website:  www.openfoam.com                      |
|    \\/     M anipulation  |                                                 |
\*---------------------------------------------------------------------------*/
FoamFile
{
    version     2.0;
    format      ascii;
    arch        "LSB;label=32;scalar=64";
    class       volVectorField;
    location    "10";
    object      U;
}
// * * * * * * * * * * * * * * * * * * * * * * * * * * * * * * * * * * * * * //

dimensions      [0 1 -1 0 0 0 0];

internalField   nonuniform List<vector> 
1900
(
(0.984273 0.00729129 0)
(0.961758 0.021682 0)
(0.952319 0.0181811 0)
(0.918694 0.0253025 0)
(0.903392 0.0154509 0)
(0.863042 0.0257489 0)
(0.852206 0.0116163 0)
(0.811891 0.0267309 0)
(0.809528 0.00459575 0)
(0.770309 0.0259978 0)
(1.00256 0.0115603 0)
(1.00446 0.0258642 0)
(1.01943 0.0289713 0)
(1.02197 0.0304658 0)
(1.03486 0.0280201 0)
(1.03394 0.0284394 0)
(1.04401 0.0258144 0)
(1.04273 0.0251361 0)
(1.05111 0.020729 0)
(1.05216 0.0162936 0)
(1.00048 0.00388899 0)
(1.00419 0.0111599 0)
(1.01255 0.0140092 0)
(1.02112 0.0158015 0)
(1.03153 0.0147349 0)
(1.04052 0.0144497 0)
(1.04996 0.0124196 0)
(1.05836 0.010989 0)
(1.06683 0.00739225 0)
(1.07465 0.00325993 0)
(1.00007 0.00207936 0)
(1.00313 0.00584938 0)
(1.00888 0.00806659 0)
(1.01648 0.00905255 0)
(1.02527 0.00858097 0)
(1.0343 0.00749064 0)
(1.04323 0.0057226 0)
(1.05178 0.00357435 0)
(1.05995 0.000766083 0)
(1.06762 -0.00272671 0)
(1.00003 0.00042688 0)
(1.00261 0.00117977 0)
(1.00738 0.00144777 0)
(1.01402 0.00117383 0)
(1.02191 0.000282978 0)
(1.03035 -0.0010706 0)
(1.03879 -0.00285255 0)
(1.04691 -0.00503777 0)
(1.05459 -0.00767419 0)
(1.06174 -0.0108197 0)
(1.00003 -0.00105816 0)
(1.00255 -0.00301913 0)
(1.0072 -0.00473527 0)
(1.01366 -0.00616652 0)
(1.02133 -0.00745836 0)
(1.02949 -0.00881057 0)
(1.03759 -0.0104088 0)
(1.04534 -0.0123624 0)
(1.05261 -0.0147117 0)
(1.05939 -0.0174271 0)
(1.00003 -0.00270809 0)
(1.00303 -0.00742442 0)
(1.00836 -0.0110448 0)
(1.01546 -0.0134743 0)
(1.02347 -0.0150901 0)
(1.03165 -0.0164408 0)
(1.03952 -0.0179309 0)
(1.04692 -0.0197381 0)
(1.05385 -0.0218548 0)
(1.06035 -0.024191 0)
(1.00004 -0.00476684 0)
(1.00441 -0.0122256 0)
(1.01138 -0.0169036 0)
(1.0198 -0.0193274 0)
(1.02841 -0.0206453 0)
(1.03642 -0.0218053 0)
(1.04363 -0.0232558 0)
(1.05012 -0.0250231 0)
(1.056 -0.0269658 0)
(1.06133 -0.0289496 0)
(1.00006 -0.012117 0)
(1.00722 -0.0259462 0)
(1.01559 -0.0314194 0)
(1.02288 -0.0325626 0)
(1.02796 -0.0326397 0)
(1.03076 -0.0330065 0)
(1.03179 -0.0337751 0)
(1.0315 -0.0346818 0)
(1.03012 -0.035511 0)
(1.02765 -0.0362026 0)
(0.980777 -0.00916299 0)
(0.964588 -0.0188198 0)
(0.945466 -0.0220428 0)
(0.920806 -0.0221801 0)
(0.892029 -0.0217313 0)
(0.861732 -0.0215668 0)
(0.831516 -0.0215945 0)
(0.80186 -0.0215788 0)
(0.772696 -0.0213955 0)
(0.743783 -0.0210601 0)
(0.000207205 -0.000110184 0)
(0.000341418 -2.0623e-05 0)
(7.23398e-05 2.90273e-05 0)
(-0.000418633 5.82983e-05 0)
(-0.00107335 7.63571e-05 0)
(-0.00184911 9.40192e-05 0)
(-0.00273279 0.000114725 0)
(-0.00371968 0.000137404 0)
(-0.00480464 0.000160832 0)
(-0.00598138 0.000184298 0)
(-0.00724284 0.00020737 0)
(-0.00858149 0.000229743 0)
(-0.00998963 0.000251175 0)
(-0.0114597 0.000271465 0)
(-0.0129842 0.000290467 0)
(-0.014556 0.000308095 0)
(-0.0161686 0.000324311 0)
(-0.0178158 0.000339097 0)
(-0.0194917 0.000352429 0)
(-0.0211911 0.000364314 0)
(-0.0229095 0.000374786 0)
(-0.0246433 0.000383912 0)
(-0.0263897 0.000391787 0)
(-0.0281468 0.000398525 0)
(-0.029914 0.000404254 0)
(-0.0316916 0.000409129 0)
(-0.0334811 0.00041335 0)
(-0.0352853 0.000417165 0)
(-0.0371087 0.000420838 0)
(-0.0389567 0.000424649 0)
(-0.0408366 0.000428866 0)
(-0.0427567 0.000433692 0)
(-0.0447268 0.000439232 0)
(-0.0467575 0.000445576 0)
(-0.0488611 0.000453009 0)
(-0.0510517 0.000462184 0)
(-0.0533458 0.000474149 0)
(-0.0557625 0.000490522 0)
(-0.0583244 0.000513893 0)
(-0.0610581 0.000548183 0)
(-0.0639956 0.000599286 0)
(-0.0671757 0.000675823 0)
(-0.0706457 0.000789485 0)
(-0.0744619 0.000954158 0)
(-0.0786876 0.00118386 0)
(-0.0833872 0.00149018 0)
(-0.0886181 0.00187891 0)
(-0.0944203 0.00234706 0)
(-0.100806 0.00288016 0)
(-0.107745 0.00344933 0)
(-0.115155 0.00400907 0)
(-0.122886 0.0045038 0)
(-0.13073 0.00487801 0)
(-0.138429 0.00508772 0)
(-0.145686 0.00510181 0)
(-0.152174 0.00491086 0)
(-0.157587 0.00454743 0)
(-0.161685 0.00407438 0)
(-0.164231 0.00347223 0)
(-0.164994 0.00272334 0)
(-0.163865 0.00181658 0)
(-0.160823 0.000838887 0)
(-0.155787 -0.00018806 0)
(-0.148816 -0.00121237 0)
(-0.139949 -0.00221633 0)
(-0.129346 -0.00315905 0)
(-0.117115 -0.00402387 0)
(-0.103443 -0.00479517 0)
(-0.0885585 -0.00543228 0)
(-0.0725289 -0.00600348 0)
(-0.0558513 -0.00637064 0)
(-0.038277 -0.00669766 0)
(-0.0207378 -0.00683153 0)
(-0.00238532 -0.00694393 0)
(0.0152227 -0.00688074 0)
(0.0336868 -0.00684847 0)
(0.0506493 -0.00661138 0)
(0.068714 -0.00647538 0)
(0.0845259 -0.00612259 0)
(0.101876 -0.00594152 0)
(0.116178 -0.00552911 0)
(0.132743 -0.00536351 0)
(0.145316 -0.00494857 0)
(0.161313 -0.00485286 0)
(0.171995 -0.00449309 0)
(0.188069 -0.00451645 0)
(0.196533 -0.00426367 0)
(0.214094 -0.00449831 0)
(0.219358 -0.00437133 0)
(0.241257 -0.00525615 0)
(5.85274e-05 -0.000513327 0)
(-0.000539086 0.000154381 0)
(-0.00205174 0.000729073 0)
(-0.00398386 0.00113344 0)
(-0.00630086 0.00141255 0)
(-0.00892986 0.00163505 0)
(-0.0118334 0.00183684 0)
(-0.014983 0.00202573 0)
(-0.0183493 0.00220157 0)
(-0.0219041 0.00236331 0)
(-0.0256202 0.00251009 0)
(-0.0294717 0.00264163 0)
(-0.0334339 0.0027581 0)
(-0.0374839 0.00285998 0)
(-0.0416009 0.00294798 0)
(-0.0457663 0.00302296 0)
(-0.0499637 0.00308589 0)
(-0.0541794 0.0031377 0)
(-0.0584015 0.00317933 0)
(-0.0626208 0.00321212 0)
(-0.0668305 0.00323764 0)
(-0.0710263 0.00325767 0)
(-0.0752067 0.0032741 0)
(-0.0793725 0.00328894 0)
(-0.0835272 0.00330428 0)
(-0.0876767 0.00332235 0)
(-0.0918294 0.00334562 0)
(-0.0959961 0.00337672 0)
(-0.10019 0.00341834 0)
(-0.104426 0.00347322 0)
(-0.108723 0.00354406 0)
(-0.113098 0.0036334 0)
(-0.117571 0.00374365 0)
(-0.122164 0.00387735 0)
(-0.126896 0.00403769 0)
(-0.131789 0.00422866 0)
(-0.136863 0.00445452 0)
(-0.142136 0.00471979 0)
(-0.147622 0.00502977 0)
(-0.153333 0.00539017 0)
(-0.15927 0.00580723 0)
(-0.165428 0.00628774 0)
(-0.171791 0.00683791 0)
(-0.17833 0.00746008 0)
(-0.184997 0.00814792 0)
(-0.191722 0.00888323 0)
(-0.198409 0.00963275 0)
(-0.204932 0.0103489 0)
(-0.211141 0.0109726 0)
(-0.216862 0.011436 0)
(-0.221899 0.011659 0)
(-0.226035 0.0115656 0)
(-0.229041 0.0110971 0)
(-0.230701 0.0102309 0)
(-0.230794 0.0089509 0)
(-0.229099 0.00723096 0)
(-0.225439 0.00508025 0)
(-0.219838 0.00257516 0)
(-0.212122 -0.000183973 0)
(-0.202365 -0.00312495 0)
(-0.190407 -0.00619674 0)
(-0.176422 -0.00927483 0)
(-0.160313 -0.0123353 0)
(-0.142385 -0.0152543 0)
(-0.122553 -0.0179987 0)
(-0.101203 -0.020476 0)
(-0.078362 -0.0226983 0)
(-0.0542269 -0.0246611 0)
(-0.0293491 -0.0262795 0)
(-0.00310736 -0.0276468 0)
(0.0228611 -0.0285855 0)
(0.0505648 -0.0293525 0)
(0.0765451 -0.0296429 0)
(0.105029 -0.0298743 0)
(0.130164 -0.0295827 0)
(0.1589 -0.0294028 0)
(0.182489 -0.028646 0)
(0.211105 -0.0281717 0)
(0.232545 -0.0270893 0)
(0.260936 -0.0264713 0)
(0.279718 -0.0252087 0)
(0.308072 -0.0246037 0)
(0.323763 -0.0233026 0)
(0.352579 -0.0228692 0)
(0.364794 -0.021662 0)
(0.394902 -0.0215699 0)
(0.403288 -0.0205818 0)
(0.435823 -0.0210597 0)
(0.440068 -0.0204418 0)
(0.476215 -0.0219286 0)
(-0.000164552 0.000438079 0)
(-0.00196808 0.00232043 0)
(-0.0054727 0.00354651 0)
(-0.00945203 0.00436685 0)
(-0.0138706 0.00500685 0)
(-0.0186264 0.00557347 0)
(-0.0236771 0.00609237 0)
(-0.0289825 0.00656321 0)
(-0.0344883 0.00698115 0)
(-0.0401418 0.00734439 0)
(-0.0458951 0.00765278 0)
(-0.051705 0.00790829 0)
(-0.0575339 0.00811434 0)
(-0.0633501 0.00827503 0)
(-0.0691269 0.00839491 0)
(-0.074843 0.00847877 0)
(-0.0804817 0.00853153 0)
(-0.0860303 0.00855816 0)
(-0.0914794 0.00856372 0)
(-0.0968228 0.00855319 0)
(-0.102057 0.00853153 0)
(-0.107183 0.00850379 0)
(-0.112203 0.00847498 0)
(-0.11712 0.00845007 0)
(-0.121941 0.00843389 0)
(-0.126673 0.0084312 0)
(-0.131323 0.00844685 0)
(-0.135899 0.00848565 0)
(-0.140411 0.00855205 0)
(-0.144866 0.00864998 0)
(-0.149271 0.00878277 0)
(-0.153631 0.00895287 0)
(-0.157947 0.0091616 0)
(-0.162219 0.00940932 0)
(-0.16644 0.00969591 0)
(-0.170602 0.010021 0)
(-0.174689 0.0103828 0)
(-0.17868 0.0107768 0)
(-0.182546 0.0111973 0)
(-0.186248 0.0116363 0)
(-0.189738 0.0120841 0)
(-0.192955 0.0125299 0)
(-0.195829 0.0129622 0)
(-0.198278 0.0133666 0)
(-0.200209 0.0137172 0)
(-0.201517 0.0139781 0)
(-0.202081 0.0141018 0)
(-0.201769 0.0140319 0)
(-0.200444 0.013705 0)
(-0.197985 0.0130646 0)
(-0.194255 0.012029 0)
(-0.189137 0.010526 0)
(-0.182489 0.00849051 0)
(-0.174258 0.00590679 0)
(-0.164414 0.00277094 0)
(-0.152908 -0.00084641 0)
(-0.139666 -0.00497513 0)
(-0.124844 -0.0095121 0)
(-0.108054 -0.0143777 0)
(-0.0898255 -0.0193733 0)
(-0.0697664 -0.0244352 0)
(-0.0485311 -0.0293786 0)
(-0.0255812 -0.0342196 0)
(-0.00170638 -0.0387418 0)
(0.0236379 -0.0429632 0)
(0.0498269 -0.0467092 0)
(0.0767478 -0.050034 0)
(0.104684 -0.0528356 0)
(0.132251 -0.0551509 0)
(0.161489 -0.0569576 0)
(0.188851 -0.0581763 0)
(0.2189 -0.0590452 0)
(0.245281 -0.0592427 0)
(0.275648 -0.0592794 0)
(0.300358 -0.0585913 0)
(0.330683 -0.0579597 0)
(0.35316 -0.056579 0)
(0.383255 -0.0554928 0)
(0.40305 -0.0536395 0)
(0.432929 -0.0523405 0)
(0.449708 -0.0502429 0)
(0.479596 -0.0489788 0)
(0.493128 -0.046856 0)
(0.523447 -0.045872 0)
(0.53359 -0.0439298 0)
(0.564949 -0.0434783 0)
(0.57164 -0.0419286 0)
(0.604789 -0.0423008 0)
(0.608007 -0.0414015 0)
(0.643739 -0.0429443 0)
(-0.000924563 0.00124573 0)
(-0.00481216 0.00515181 0)
(-0.010746 0.00763719 0)
(-0.0168272 0.00930201 0)
(-0.0232323 0.0105389 0)
(-0.02991 0.0115205 0)
(-0.0367741 0.01232 0)
(-0.0437271 0.0129738 0)
(-0.050678 0.0134959 0)
(-0.0575548 0.0138981 0)
(-0.0643021 0.0141926 0)
(-0.0708758 0.0143913 0)
(-0.077244 0.0145057 0)
(-0.0833839 0.0145472 0)
(-0.0892807 0.0145269 0)
(-0.0949251 0.0144551 0)
(-0.100313 0.0143419 0)
(-0.105443 0.0141961 0)
(-0.110318 0.0140261 0)
(-0.114941 0.0138396 0)
(-0.119318 0.0136439 0)
(-0.123453 0.0134459 0)
(-0.127354 0.0132517 0)
(-0.131026 0.0130671 0)
(-0.134474 0.012897 0)
(-0.137702 0.0127455 0)
(-0.140712 0.0126166 0)
(-0.143504 0.0125138 0)
(-0.146077 0.0124396 0)
(-0.148426 0.0123952 0)
(-0.150545 0.0123808 0)
(-0.152421 0.0123947 0)
(-0.154041 0.0124336 0)
(-0.155385 0.0124922 0)
(-0.156427 0.0125641 0)
(-0.157139 0.0126436 0)
(-0.157488 0.0127248 0)
(-0.157435 0.0127954 0)
(-0.156936 0.0128422 0)
(-0.155937 0.0128502 0)
(-0.154379 0.012802 0)
(-0.152191 0.0126803 0)
(-0.149295 0.0124683 0)
(-0.14562 0.0121532 0)
(-0.141079 0.0116993 0)
(-0.135589 0.0110624 0)
(-0.129051 0.01019 0)
(-0.121381 0.00903015 0)
(-0.112457 0.0074916 0)
(-0.102284 0.0055242 0)
(-0.0907543 0.00306896 0)
(-0.0778961 0.000114322 0)
(-0.0635694 -0.00341499 0)
(-0.0479543 -0.0075094 0)
(-0.0308198 -0.0122342 0)
(-0.0124504 -0.0174448 0)
(0.00754925 -0.0231276 0)
(0.0283854 -0.029003 0)
(0.0509658 -0.0351419 0)
(0.0740976 -0.0412935 0)
(0.0989609 -0.0475265 0)
(0.124087 -0.0535156 0)
(0.150771 -0.059378 0)
(0.177573 -0.0647416 0)
(0.205474 -0.0697607 0)
(0.233563 -0.0741176 0)
(0.262018 -0.0780041 0)
(0.290957 -0.0811498 0)
(0.319218 -0.0836885 0)
(0.348541 -0.0855184 0)
(0.375891 -0.0866614 0)
(0.405169 -0.0872307 0)
(0.430955 -0.0870794 0)
(0.459836 -0.0865525 0)
(0.483503 -0.0853009 0)
(0.511765 -0.0839221 0)
(0.532884 -0.0818312 0)
(0.560459 -0.0798978 0)
(0.578729 -0.0772612 0)
(0.605708 -0.0750928 0)
(0.620947 -0.0722098 0)
(0.647585 -0.0701249 0)
(0.65971 -0.0672807 0)
(0.686404 -0.0655845 0)
(0.695408 -0.0630455 0)
(0.722678 -0.0620358 0)
(0.728596 -0.0600641 0)
(0.757061 -0.0600506 0)
(0.759933 -0.0589237 0)
(0.790264 -0.0602314 0)
(-0.00128188 0.00695557 0)
(-0.00687887 0.0138306 0)
(-0.0155103 0.0164674 0)
(-0.0240094 0.017628 0)
(-0.0325148 0.0184599 0)
(-0.0407798 0.0192385 0)
(-0.0486761 0.0199143 0)
(-0.0561628 0.0204106 0)
(-0.0632102 0.020708 0)
(-0.0697864 0.0208325 0)
(-0.0758742 0.0208125 0)
(-0.0814688 0.0206733 0)
(-0.0865746 0.0204369 0)
(-0.0912029 0.0201228 0)
(-0.0953691 0.0197478 0)
(-0.0990916 0.0193267 0)
(-0.10239 0.0188721 0)
(-0.105284 0.0183941 0)
(-0.107791 0.0179008 0)
(-0.109929 0.0174001 0)
(-0.111714 0.0168995 0)
(-0.113158 0.0164047 0)
(-0.114273 0.0159207 0)
(-0.115069 0.0154517 0)
(-0.115549 0.0150001 0)
(-0.115717 0.0145676 0)
(-0.115571 0.0141547 0)
(-0.115107 0.0137628 0)
(-0.114318 0.0133909 0)
(-0.113191 0.0130366 0)
(-0.111711 0.0126961 0)
(-0.109862 0.0123639 0)
(-0.107619 0.0120326 0)
(-0.104956 0.0116926 0)
(-0.101839 0.0113334 0)
(-0.0982296 0.0109476 0)
(-0.0941004 0.0105339 0)
(-0.0894014 0.0100689 0)
(-0.0840912 0.00953373 0)
(-0.0781207 0.00890943 0)
(-0.0714306 0.00817357 0)
(-0.0639591 0.00730285 0)
(-0.0556155 0.00626048 0)
(-0.0463892 0.00501581 0)
(-0.0361896 0.00354018 0)
(-0.0249749 0.00181283 0)
(-0.0126242 -0.000221194 0)
(0.000814045 -0.00259364 0)
(0.0155098 -0.00538428 0)
(0.0312823 -0.00862515 0)
(0.0484593 -0.012412 0)
(0.0666825 -0.0167149 0)
(0.0864382 -0.0216082 0)
(0.106989 -0.0269903 0)
(0.129175 -0.0329082 0)
(0.151814 -0.0391941 0)
(0.17621 -0.0459455 0)
(0.200671 -0.0528403 0)
(0.226916 -0.0599973 0)
(0.252883 -0.0670344 0)
(0.280581 -0.0741137 0)
(0.307694 -0.0807855 0)
(0.336344 -0.0872671 0)
(0.364174 -0.0930791 0)
(0.393192 -0.0984845 0)
(0.421268 -0.103034 0)
(0.450016 -0.107022 0)
(0.477861 -0.110061 0)
(0.50569 -0.112442 0)
(0.532864 -0.113885 0)
(0.559172 -0.11464 0)
(0.585338 -0.114569 0)
(0.609622 -0.113835 0)
(0.63457 -0.112461 0)
(0.656449 -0.110486 0)
(0.680111 -0.108118 0)
(0.69933 -0.105226 0)
(0.721781 -0.102231 0)
(0.738203 -0.0987841 0)
(0.759647 -0.0955473 0)
(0.773231 -0.091905 0)
(0.793985 -0.0888019 0)
(0.804755 -0.085303 0)
(0.82523 -0.0826849 0)
(0.833245 -0.0796385 0)
(0.853921 -0.0778333 0)
(0.859238 -0.0755253 0)
(0.880647 -0.0748488 0)
(0.883278 -0.0735548 0)
(0.905978 -0.0743269 0)
(-0.0036709 0.00684369 0)
(-0.0134788 0.0173009 0)
(-0.0245191 0.0220294 0)
(-0.0336267 0.024689 0)
(-0.0418789 0.0262749 0)
(-0.0494724 0.0271119 0)
(-0.0563687 0.0273787 0)
(-0.0624447 0.027261 0)
(-0.0676106 0.0268949 0)
(-0.071871 0.0263526 0)
(-0.0752845 0.0256805 0)
(-0.0779135 0.0249121 0)
(-0.079821 0.0240758 0)
(-0.0810675 0.0231942 0)
(-0.0817087 0.0222849 0)
(-0.0817961 0.0213622 0)
(-0.0813766 0.0204374 0)
(-0.0804923 0.0195191 0)
(-0.0791763 0.0186098 0)
(-0.0774603 0.017715 0)
(-0.0753691 0.016839 0)
(-0.0729234 0.0159839 0)
(-0.0701387 0.0151502 0)
(-0.0670265 0.0143384 0)
(-0.0635931 0.0135468 0)
(-0.0598397 0.0127722 0)
(-0.0557592 0.0120107 0)
(-0.0513476 0.0112631 0)
(-0.0465924 0.0105261 0)
(-0.0414757 0.00979255 0)
(-0.0359777 0.00905539 0)
(-0.0300745 0.00830625 0)
(-0.0237394 0.00753543 0)
(-0.0169401 0.00673049 0)
(-0.00963394 0.0058753 0)
(-0.00175752 0.00494479 0)
(0.00666373 0.00391602 0)
(0.0157065 0.00278785 0)
(0.0254194 0.00154593 0)
(0.0358353 0.00016764 0)
(0.0470275 -0.00137725 0)
(0.0590035 -0.00310821 0)
(0.0718776 -0.00505726 0)
(0.0855913 -0.00725269 0)
(0.100328 -0.00974697 0)
(0.115989 -0.012556 0)
(0.132842 -0.0157321 0)
(0.150587 -0.0192917 0)
(0.169678 -0.0233107 0)
(0.189549 -0.0277552 0)
(0.210914 -0.0327136 0)
(0.232853 -0.0381286 0)
(0.256412 -0.044106 0)
(0.28023 -0.0504937 0)
(0.305735 -0.0574005 0)
(0.331114 -0.0645703 0)
(0.358197 -0.0721306 0)
(0.384736 -0.0797174 0)
(0.412933 -0.0874846 0)
(0.440152 -0.0949968 0)
(0.468929 -0.102449 0)
(0.496305 -0.109353 0)
(0.525071 -0.115953 0)
(0.552044 -0.121735 0)
(0.580178 -0.127005 0)
(0.606201 -0.131255 0)
(0.633103 -0.134854 0)
(0.6577 -0.137326 0)
(0.682846 -0.139093 0)
(0.705669 -0.139734 0)
(0.728664 -0.139699 0)
(0.749531 -0.138636 0)
(0.770126 -0.136993 0)
(0.789018 -0.1345 0)
(0.807096 -0.131566 0)
(0.824134 -0.128017 0)
(0.839684 -0.124187 0)
(0.855106 -0.120012 0)
(0.868194 -0.115705 0)
(0.882319 -0.111338 0)
(0.893056 -0.106962 0)
(0.906257 -0.102811 0)
(0.914766 -0.0987356 0)
(0.927452 -0.0951723 0)
(0.933836 -0.0917215 0)
(0.94643 -0.0890748 0)
(0.950742 -0.0865325 0)
(0.963668 -0.0851009 0)
(0.965872 -0.083718 0)
(0.97955 -0.0837791 0)
(-0.00179951 0.0288072 0)
(-0.00957006 0.040565 0)
(-0.0240352 0.0405029 0)
(-0.0354105 0.0380674 0)
(-0.0444199 0.0361973 0)
(-0.0508219 0.034689 0)
(-0.0549206 0.033195 0)
(-0.0571176 0.0316408 0)
(-0.0577756 0.0300354 0)
(-0.0571755 0.028405 0)
(-0.055507 0.0267699 0)
(-0.0529219 0.0251456 0)
(-0.0495478 0.0235498 0)
(-0.0454938 0.021994 0)
(-0.0408514 0.0204844 0)
(-0.0356993 0.0190253 0)
(-0.0301031 0.0176186 0)
(-0.0241267 0.0162643 0)
(-0.0177985 0.0149477 0)
(-0.0111646 0.0136739 0)
(-0.00425266 0.012444 0)
(0.00291616 0.0112548 0)
(0.0103279 0.010102 0)
(0.017973 0.008982 0)
(0.0258499 0.00789033 0)
(0.0339593 0.00682083 0)
(0.0423312 0.00575824 0)
(0.050963 0.00468454 0)
(0.059869 0.00359174 0)
(0.0690809 0.00247664 0)
(0.0786246 0.00133254 0)
(0.088532 0.000147104 0)
(0.098836 -0.0010936 0)
(0.109575 -0.0024055 0)
(0.120779 -0.00380507 0)
(0.132502 -0.00530706 0)
(0.144753 -0.00693927 0)
(0.157594 -0.00872262 0)
(0.171106 -0.0106753 0)
(0.18527 -0.0128163 0)
(0.200206 -0.0151742 0)
(0.215841 -0.0177701 0)
(0.23237 -0.020638 0)
(0.249623 -0.0237866 0)
(0.267903 -0.0272556 0)
(0.286892 -0.0310599 0)
(0.307046 -0.0352569 0)
(0.327828 -0.0398389 0)
(0.349887 -0.0448753 0)
(0.372415 -0.0503225 0)
(0.396293 -0.056262 0)
(0.420393 -0.0626002 0)
(0.445868 -0.0694262 0)
(0.471224 -0.0765689 0)
(0.497919 -0.0841173 0)
(0.52407 -0.091812 0)
(0.551472 -0.0997502 0)
(0.577841 -0.107591 0)
(0.605342 -0.115454 0)
(0.631286 -0.122931 0)
(0.658233 -0.130186 0)
(0.683101 -0.13676 0)
(0.708852 -0.142882 0)
(0.732042 -0.14806 0)
(0.756025 -0.152604 0)
(0.777046 -0.156013 0)
(0.798816 -0.158685 0)
(0.817345 -0.160123 0)
(0.83663 -0.160818 0)
(0.852545 -0.160291 0)
(0.869269 -0.159107 0)
(0.882648 -0.156808 0)
(0.896896 -0.154015 0)
(0.907969 -0.150287 0)
(0.919935 -0.146273 0)
(0.929027 -0.14155 0)
(0.938959 -0.136765 0)
(0.946442 -0.131514 0)
(0.954597 -0.126411 0)
(0.960852 -0.121084 0)
(0.967463 -0.116086 0)
(0.972853 -0.111089 0)
(0.978104 -0.106565 0)
(0.98296 -0.102254 0)
(0.986969 -0.098517 0)
(0.991589 -0.095194 0)
(0.994386 -0.0925056 0)
(0.999031 -0.0904298 0)
(1.00054 -0.0890045 0)
(1.00544 -0.0883933 0)
(-0.019577 0.00828395 0)
(-0.0377943 0.0318959 0)
(-0.0409947 0.0392093 0)
(-0.0431011 0.0399885 0)
(-0.0420093 0.0383194 0)
(-0.0385906 0.0355593 0)
(-0.0333023 0.0324943 0)
(-0.0264934 0.0294573 0)
(-0.0184077 0.0265407 0)
(-0.00935038 0.0238198 0)
(0.000515608 0.0212658 0)
(0.0110056 0.0188621 0)
(0.0219715 0.0166038 0)
(0.0332972 0.0144841 0)
(0.0448963 0.0124924 0)
(0.0566902 0.0106201 0)
(0.0686322 0.00885931 0)
(0.08062 0.00721098 0)
(0.0927206 0.00567376 0)
(0.104864 0.00422221 0)
(0.117033 0.00283 0)
(0.129223 0.00148136 0)
(0.141437 0.000166605 0)
(0.153677 -0.00112461 0)
(0.165964 -0.00240327 0)
(0.178292 -0.00368064 0)
(0.190703 -0.00496551 0)
(0.203214 -0.0062719 0)
(0.215856 -0.00761492 0)
(0.228675 -0.00901044 0)
(0.241705 -0.010471 0)
(0.254983 -0.0120136 0)
(0.268548 -0.0136524 0)
(0.282438 -0.0154075 0)
(0.296701 -0.0172929 0)
(0.311363 -0.0193301 0)
(0.326491 -0.0215254 0)
(0.342082 -0.0239039 0)
(0.358238 -0.0264871 0)
(0.374913 -0.0292996 0)
(0.392243 -0.0323614 0)
(0.41012 -0.0356948 0)
(0.428739 -0.0393216 0)
(0.447903 -0.0432595 0)
(0.467881 -0.0475347 0)
(0.488361 -0.0521586 0)
(0.509706 -0.0571613 0)
(0.531447 -0.0625356 0)
(0.554061 -0.0683128 0)
(0.576884 -0.074457 0)
(0.60054 -0.0809971 0)
(0.624126 -0.087855 0)
(0.648452 -0.095055 0)
(0.672334 -0.102462 0)
(0.696822 -0.110095 0)
(0.720402 -0.117754 0)
(0.744425 -0.125464 0)
(0.767014 -0.132959 0)
(0.789897 -0.140284 0)
(0.810797 -0.147111 0)
(0.831901 -0.153537 0)
(0.850496 -0.159184 0)
(0.869296 -0.164227 0)
(0.885127 -0.168254 0)
(0.901285 -0.171541 0)
(0.914114 -0.173648 0)
(0.927515 -0.174972 0)
(0.937339 -0.175051 0)
(0.948083 -0.174401 0)
(0.955115 -0.172537 0)
(0.963493 -0.17009 0)
(0.968113 -0.166547 0)
(0.974527 -0.162638 0)
(0.977191 -0.157814 0)
(0.982073 -0.152876 0)
(0.983242 -0.147231 0)
(0.98699 -0.141729 0)
(0.987073 -0.135727 0)
(0.990016 -0.130106 0)
(0.989346 -0.124177 0)
(0.991724 -0.118833 0)
(0.990552 -0.113349 0)
(0.992514 -0.10862 0)
(0.991013 -0.103895 0)
(0.992626 -0.100061 0)
(0.990905 -0.0963557 0)
(0.992148 -0.0936434 0)
(0.990261 -0.0911689 0)
(0.991029 -0.0897555 0)
(0.988991 -0.0886734 0)
(-0.0189379 0.107824 0)
(-0.0181769 0.0727199 0)
(-0.0113597 0.0580261 0)
(0.00106635 0.0461389 0)
(0.0173146 0.0363362 0)
(0.0356889 0.0288146 0)
(0.055259 0.0229181 0)
(0.0752409 0.0180959 0)
(0.0955418 0.0139636 0)
(0.115507 0.01034 0)
(0.135347 0.0071497 0)
(0.154901 0.004344 0)
(0.174093 0.00185092 0)
(0.192891 -0.000390961 0)
(0.211299 -0.00242445 0)
(0.229291 -0.00428033 0)
(0.2469 -0.00598201 0)
(0.264082 -0.00755169 0)
(0.280914 -0.00900778 0)
(0.297367 -0.010371 0)
(0.313456 -0.011667 0)
(0.329214 -0.012921 0)
(0.344679 -0.0141531 0)
(0.359879 -0.0153831 0)
(0.374858 -0.0166284 0)
(0.389642 -0.0179066 0)
(0.404279 -0.0192297 0)
(0.418821 -0.0206084 0)
(0.433302 -0.0220524 0)
(0.447775 -0.0235811 0)
(0.462277 -0.0252095 0)
(0.476861 -0.0269584 0)
(0.491564 -0.0288406 0)
(0.506431 -0.0308771 0)
(0.5215 -0.0330783 0)
(0.536806 -0.0354655 0)
(0.552388 -0.038048 0)
(0.568265 -0.0408491 0)
(0.584481 -0.0438793 0)
(0.60103 -0.0471628 0)
(0.617965 -0.0507072 0)
(0.635242 -0.0545352 0)
(0.652926 -0.0586513 0)
(0.670927 -0.0630755 0)
(0.689328 -0.0678087 0)
(0.707974 -0.0728659 0)
(0.726976 -0.0782445 0)
(0.746089 -0.0839497 0)
(0.765466 -0.0899691 0)
(0.784746 -0.0962877 0)
(0.804149 -0.102878 0)
(0.823166 -0.109696 0)
(0.842126 -0.116699 0)
(0.860335 -0.123802 0)
(0.878288 -0.13095 0)
(0.895062 -0.138015 0)
(0.911401 -0.144939 0)
(0.926111 -0.15155 0)
(0.940285 -0.157806 0)
(0.952394 -0.163493 0)
(0.963991 -0.168618 0)
(0.973136 -0.172934 0)
(0.981958 -0.176528 0)
(0.988014 -0.179124 0)
(0.99412 -0.18092 0)
(0.99722 -0.181604 0)
(1.00091 -0.181509 0)
(1.00141 -0.180274 0)
(1.00316 -0.178378 0)
(1.00155 -0.17539 0)
(1.00193 -0.171937 0)
(0.998756 -0.167502 0)
(0.998297 -0.162856 0)
(0.994058 -0.157377 0)
(0.993224 -0.151965 0)
(0.98831 -0.145874 0)
(0.987437 -0.140123 0)
(0.982117 -0.133835 0)
(0.981414 -0.128136 0)
(0.97584 -0.122024 0)
(0.975407 -0.11672 0)
(0.969634 -0.111102 0)
(0.969491 -0.106481 0)
(0.963505 -0.101627 0)
(0.963611 -0.097929 0)
(0.957342 -0.0940603 0)
(0.957604 -0.091475 0)
(0.950941 -0.0887654 0)
(0.951214 -0.0874332 0)
(0.944013 -0.0860052 0)
(0.0697499 0.00703985 0)
(0.0896196 0.00654601 0)
(0.153161 0.00611113 0)
(0.197908 0.00296543 0)
(0.236568 -0.0012874 0)
(0.271668 -0.00535365 0)
(0.304072 -0.00884887 0)
(0.33356 -0.0117904 0)
(0.360996 -0.0142924 0)
(0.386527 -0.0164308 0)
(0.410612 -0.0182901 0)
(0.4334 -0.0199196 0)
(0.455002 -0.0213594 0)
(0.475526 -0.02264 0)
(0.495078 -0.0237858 0)
(0.513736 -0.024814 0)
(0.531573 -0.025745 0)
(0.548646 -0.0265961 0)
(0.565015 -0.0273958 0)
(0.580734 -0.0281636 0)
(0.595851 -0.0289164 0)
(0.610422 -0.029674 0)
(0.624499 -0.0304557 0)
(0.638139 -0.0312809 0)
(0.651392 -0.0321663 0)
(0.664312 -0.0331285 0)
(0.676947 -0.0341813 0)
(0.689357 -0.0353404 0)
(0.701577 -0.0366165 0)
(0.713662 -0.0380257 0)
(0.725642 -0.0395789 0)
(0.73757 -0.0412923 0)
(0.749469 -0.0431756 0)
(0.761389 -0.0452461 0)
(0.773342 -0.0475127 0)
(0.785367 -0.0499929 0)
(0.797467 -0.0526933 0)
(0.809674 -0.0556313 0)
(0.821975 -0.058811 0)
(0.834393 -0.0622499 0)
(0.846901 -0.0659486 0)
(0.859504 -0.0699231 0)
(0.872163 -0.0741687 0)
(0.884861 -0.0786986 0)
(0.897545 -0.0835007 0)
(0.910171 -0.0885846 0)
(0.922673 -0.0939287 0)
(0.934969 -0.0995354 0)
(0.946995 -0.105368 0)
(0.958623 -0.111415 0)
(0.969801 -0.11762 0)
(0.980343 -0.123954 0)
(0.99024 -0.130336 0)
(0.999233 -0.136718 0)
(1.0074 -0.142998 0)
(1.01439 -0.149104 0)
(1.02044 -0.154925 0)
(1.02506 -0.16037 0)
(1.02874 -0.165336 0)
(1.03079 -0.169724 0)
(1.03205 -0.173465 0)
(1.03155 -0.176454 0)
(1.03059 -0.178684 0)
(1.02777 -0.180041 0)
(1.025 -0.180606 0)
(1.02029 -0.180239 0)
(1.01628 -0.179134 0)
(1.01016 -0.177101 0)
(1.00551 -0.174469 0)
(0.998481 -0.17096 0)
(0.993722 -0.16706 0)
(0.986131 -0.162366 0)
(0.98165 -0.157535 0)
(0.973718 -0.151998 0)
(0.969757 -0.146603 0)
(0.961574 -0.140576 0)
(0.958248 -0.134972 0)
(0.949796 -0.12879 0)
(0.947133 -0.123309 0)
(0.938328 -0.11728 0)
(0.936308 -0.112219 0)
(0.927029 -0.106616 0)
(0.925608 -0.102236 0)
(0.915712 -0.0972959 0)
(0.914834 -0.0938158 0)
(0.904156 -0.0897379 0)
(0.903741 -0.0873307 0)
(0.89209 -0.0842659 0)
(0.892022 -0.0830437 0)
(0.879178 -0.0810815 0)
(0.773361 -0.00908046 0)
(0.774827 -0.0204419 0)
(0.775575 -0.026602 0)
(0.777152 -0.030245 0)
(0.780682 -0.032843 0)
(0.785938 -0.0349896 0)
(0.792639 -0.0368138 0)
(0.800159 -0.0382774 0)
(0.808264 -0.0394035 0)
(0.816751 -0.0402229 0)
(0.825439 -0.0408142 0)
(0.834198 -0.0412459 0)
(0.842929 -0.0415615 0)
(0.851559 -0.0417875 0)
(0.860035 -0.041942 0)
(0.868314 -0.0420402 0)
(0.876366 -0.0420978 0)
(0.884171 -0.0421319 0)
(0.891716 -0.0421617 0)
(0.898999 -0.0422065 0)
(0.906022 -0.042285 0)
(0.9128 -0.0424163 0)
(0.919343 -0.0426194 0)
(0.925675 -0.0429127 0)
(0.931815 -0.0433131 0)
(0.937789 -0.0438366 0)
(0.943618 -0.0444984 0)
(0.949329 -0.0453138 0)
(0.95494 -0.0462948 0)
(0.960476 -0.047453 0)
(0.965949 -0.0487976 0)
(0.971382 -0.0503388 0)
(0.976783 -0.0520843 0)
(0.982169 -0.0540438 0)
(0.987537 -0.0562243 0)
(0.9929 -0.0586348 0)
(0.998247 -0.0612803 0)
(1.00358 -0.0641685 0)
(1.00889 -0.0673022 0)
(1.01415 -0.0706878 0)
(1.01935 -0.074325 0)
(1.02445 -0.0782178 0)
(1.02943 -0.0823609 0)
(1.03424 -0.0867547 0)
(1.03884 -0.0913864 0)
(1.04318 -0.0962508 0)
(1.04719 -0.101324 0)
(1.05083 -0.106592 0)
(1.054 -0.112016 0)
(1.05668 -0.117572 0)
(1.05876 -0.123204 0)
(1.06021 -0.128876 0)
(1.06094 -0.134513 0)
(1.06091 -0.140067 0)
(1.06007 -0.145445 0)
(1.05839 -0.150594 0)
(1.05588 -0.155408 0)
(1.05251 -0.159836 0)
(1.04838 -0.163774 0)
(1.04342 -0.167182 0)
(1.03788 -0.169967 0)
(1.03156 -0.172108 0)
(1.02496 -0.173536 0)
(1.01763 -0.174247 0)
(1.01038 -0.174215 0)
(1.00238 -0.173442 0)
(0.99489 -0.171964 0)
(0.986467 -0.169767 0)
(0.97905 -0.166967 0)
(0.970311 -0.163501 0)
(0.963138 -0.159592 0)
(0.954036 -0.155079 0)
(0.94718 -0.150324 0)
(0.937574 -0.14502 0)
(0.931069 -0.139718 0)
(0.920785 -0.133905 0)
(0.914672 -0.128368 0)
(0.903529 -0.122329 0)
(0.897887 -0.116875 0)
(0.885718 -0.110889 0)
(0.880671 -0.105822 0)
(0.867309 -0.100147 0)
(0.863019 -0.0957486 0)
(0.84827 -0.0906063 0)
(0.844912 -0.0871146 0)
(0.828522 -0.0826802 0)
(0.826263 -0.0802804 0)
(0.807904 -0.0766705 0)
(0.806883 -0.0754699 0)
(0.786151 -0.0727193 0)
(1.057 0.00845768 0)
(1.06007 0.00012911 0)
(1.06074 -0.00696926 0)
(1.05996 -0.0125649 0)
(1.05903 -0.0171317 0)
(1.05868 -0.0210765 0)
(1.05904 -0.024575 0)
(1.05995 -0.0276366 0)
(1.06119 -0.0302574 0)
(1.06262 -0.0324545 0)
(1.06414 -0.0342712 0)
(1.06572 -0.0357606 0)
(1.06731 -0.0369745 0)
(1.0689 -0.0379584 0)
(1.07047 -0.0387513 0)
(1.07199 -0.0393874 0)
(1.07345 -0.0398986 0)
(1.07484 -0.0403154 0)
(1.07613 -0.0406678 0)
(1.07733 -0.0409853 0)
(1.07844 -0.0412965 0)
(1.07944 -0.0416284 0)
(1.08035 -0.0420068 0)
(1.08117 -0.0424558 0)
(1.0819 -0.0429978 0)
(1.08257 -0.0436529 0)
(1.08317 -0.0444401 0)
(1.08371 -0.0453759 0)
(1.0842 -0.0464749 0)
(1.08464 -0.0477492 0)
(1.08504 -0.0492094 0)
(1.08539 -0.0508641 0)
(1.08571 -0.0527214 0)
(1.08598 -0.0547874 0)
(1.0862 -0.0570675 0)
(1.08636 -0.0595657 0)
(1.08646 -0.0622859 0)
(1.08649 -0.0652304 0)
(1.08642 -0.0684012 0)
(1.08625 -0.0717984 0)
(1.08594 -0.0754212 0)
(1.08549 -0.0792664 0)
(1.08485 -0.083329 0)
(1.08402 -0.0876008 0)
(1.08295 -0.0920708 0)
(1.08161 -0.0967236 0)
(1.07998 -0.10154 0)
(1.07802 -0.106495 0)
(1.07571 -0.111559 0)
(1.07301 -0.116698 0)
(1.06989 -0.121868 0)
(1.06635 -0.127027 0)
(1.06234 -0.132117 0)
(1.05789 -0.137084 0)
(1.05295 -0.141861 0)
(1.04758 -0.146392 0)
(1.04173 -0.150601 0)
(1.03548 -0.154438 0)
(1.0288 -0.157825 0)
(1.02176 -0.160727 0)
(1.01435 -0.163064 0)
(1.00663 -0.164821 0)
(0.998597 -0.165922 0)
(0.99025 -0.166377 0)
(0.981646 -0.166121 0)
(0.972648 -0.165196 0)
(0.963456 -0.16356 0)
(0.953693 -0.161282 0)
(0.943844 -0.158348 0)
(0.933144 -0.154838 0)
(0.922577 -0.150768 0)
(0.910765 -0.1462 0)
(0.899487 -0.141208 0)
(0.886433 -0.135811 0)
(0.874574 -0.130183 0)
(0.860225 -0.124245 0)
(0.848054 -0.118317 0)
(0.832406 -0.112147 0)
(0.820306 -0.106271 0)
(0.803344 -0.100166 0)
(0.791786 -0.0946866 0)
(0.77342 -0.0889103 0)
(0.762936 -0.0841397 0)
(0.742926 -0.0788888 0)
(0.734098 -0.0750877 0)
(0.711967 -0.0704781 0)
(0.705446 -0.0678507 0)
(0.680434 -0.0639135 0)
(0.676995 -0.0625927 0)
(0.648031 -0.0592624 0)
(1.0818 -0.0030744 0)
(1.08776 -0.0106048 0)
(1.09207 -0.0178863 0)
(1.09474 -0.023923 0)
(1.09628 -0.0285713 0)
(1.09727 -0.0321563 0)
(1.09812 -0.0350363 0)
(1.09899 -0.0374381 0)
(1.09987 -0.0394544 0)
(1.10071 -0.0411128 0)
(1.10147 -0.0424267 0)
(1.10213 -0.0434212 0)
(1.1027 -0.0441352 0)
(1.10319 -0.0446142 0)
(1.1036 -0.0449043 0)
(1.10393 -0.0450479 0)
(1.10419 -0.0450834 0)
(1.10436 -0.0450458 0)
(1.10445 -0.0449679 0)
(1.10445 -0.0448807 0)
(1.10435 -0.0448137 0)
(1.10416 -0.0447944 0)
(1.10388 -0.0448486 0)
(1.10351 -0.0449996 0)
(1.10306 -0.0452685 0)
(1.10252 -0.0456743 0)
(1.1019 -0.0462335 0)
(1.1012 -0.0469604 0)
(1.10043 -0.0478671 0)
(1.09958 -0.0489636 0)
(1.09865 -0.0502578 0)
(1.09765 -0.0517558 0)
(1.09657 -0.0534625 0)
(1.09541 -0.0553813 0)