/*--------------------------------*- C++ -*----------------------------------*\
| =========                 |                                                 |
| \\      /  F ield         | OpenFOAM: The Open Source CFD Toolbox           |
|  \\    /   O peration     | Version:  2306                                  |
|   \\  /    A nd           | Website:  www.openfoam.com                      |
|    \\/     M anipulation  |                                                 |
\*---------------------------------------------------------------------------*/
FoamFile
{
    version     2.0;
    format      ascii;
    arch        "LSB;label=32;scalar=64";
    class       surfaceScalarField;
    location    "0.37";
    object      phi;
}
// * * * * * * * * * * * * * * * * * * * * * * * * * * * * * * * * * * * * * //

dimensions      [0 3 -1 0 0 0 0];

oriented        oriented;

internalField   nonuniform List<scalar> 
94400
(
7.3514e-06
2.6486e-06
5.10551e-06
2.24589e-06
3.71254e-06
1.39297e-06
2.84757e-06
8.64969e-07
2.29182e-06
5.55758e-07
1.91981e-06
3.72003e-07
1.65897e-06
2.60842e-07
1.46775e-06
1.91221e-07
1.32225e-06
1.455e-07
1.20826e-06
1.13986e-07
1.11695e-06
9.13161e-08
1.04253e-06
7.44194e-08
9.81072e-07
6.14567e-08
9.29796e-07
5.12758e-08
8.86673e-07
4.31237e-08
8.50183e-07
3.64899e-08
8.19166e-07
3.10171e-08
7.92718e-07
2.6448e-08
7.70124e-07
2.25936e-08
7.50812e-07
1.93118e-08
7.34318e-07
1.6494e-08
7.20263e-07
1.40557e-08
7.08332e-07
1.19306e-08
6.98267e-07
1.00653e-08
6.8985e-07
8.41666e-09
6.82901e-07
6.94899e-09
6.77268e-07
5.63257e-09
6.72826e-07
4.44208e-09
6.69471e-07
3.35564e-09
6.67117e-07
2.35389e-09
6.65698e-07
1.41922e-09
6.65163e-07
5.35104e-10
6.65477e-07
-3.14499e-10
6.66623e-07
-1.14599e-09
6.686e-07
-1.97709e-09
6.71428e-07
-2.82798e-09
6.75151e-07
-3.72323e-09
6.79846e-07
-4.69459e-09
6.85631e-07
-5.78563e-09
6.92692e-07
-7.06034e-09
7.01311e-07
-8.61939e-09
7.11945e-07
-1.06342e-08
7.25369e-07
-1.34232e-08
7.43e-07
-1.76318e-08
7.67673e-07
-2.46722e-08
8.05459e-07
-3.77868e-08
8.70112e-07
-6.46524e-08
9.94662e-07
-1.2455e-07
1.26476e-06
-2.70096e-07
-6.37208e-07
1.90197e-06
1.01831e-05
2.46545e-06
9.21641e-06
3.21262e-06
7.94626e-06
2.66312e-06
6.79703e-06
2.01419e-06
5.8611e-06
1.4917e-06
5.12472e-06
1.10838e-06
4.54841e-06
8.37157e-07
4.09392e-06
6.45705e-07
3.73106e-06
5.0837e-07
3.43744e-06
4.07598e-07
3.19687e-06
3.31886e-07
2.99758e-06
2.73712e-07
2.83094e-06
2.28099e-07
2.69052e-06
1.91692e-07
2.57147e-06
1.62175e-07
2.47004e-06
1.37917e-07
2.38332e-06
1.17741e-07
2.30899e-06
1.00782e-07
2.24519e-06
8.63923e-08
2.19042e-06
7.40785e-08
2.14346e-06
6.34589e-08
2.10328e-06
5.4234e-08
2.06904e-06
4.61652e-08
2.04005e-06
3.90603e-08
2.0157e-06
3.27617e-08
1.99551e-06
2.71391e-08
1.97906e-06
2.20823e-08
1.96601e-06
1.74972e-08
1.95606e-06
1.33015e-08
1.94899e-06
9.42192e-09
1.94462e-06
5.79079e-09
1.94281e-06
2.34392e-09
1.94348e-06
-9.82396e-10
1.94659e-06
-4.25444e-09
1.95216e-06
-7.54523e-09
1.96027e-06
-1.094e-08
1.97109e-06
-1.45444e-08
1.98489e-06
-1.84971e-08
2.0021e-06
-2.29907e-08
2.02334e-06
-2.83064e-08
2.0496e-06
-3.48768e-08
2.08237e-06
-4.34006e-08
2.12401e-06
-5.50635e-08
2.17835e-06
-7.19724e-08
2.2517e-06
-9.80249e-08
2.35453e-06
-1.40611e-07
2.50367e-06
-2.13798e-07
2.72354e-06
-3.44422e-07
3.03589e-06
-5.82442e-07
-9.95796e-07
3.39448e-06
1.05345e-05
1.93093e-06
1.04951e-05
3.25202e-06
9.90361e-06
3.25463e-06
9.0917e-06
2.8261e-06
8.26037e-06
2.32302e-06
7.49873e-06
1.87002e-06
6.83569e-06
1.5002e-06
6.27167e-06
1.20972e-06
5.79604e-06
9.84002e-07
5.39545e-06
8.08187e-07
5.05728e-06
6.70057e-07
4.7707e-06
5.60289e-07
4.52682e-06
4.71983e-07
4.31843e-06
4.0008e-07
4.13974e-06
3.40861e-07
3.98609e-06
2.91571e-07
3.85368e-06
2.50148e-07
3.73944e-06
2.15028e-07
3.64082e-06
1.85011e-07
3.55573e-06
1.59164e-07
3.48244e-06
1.36753e-07
3.41948e-06
1.17195e-07
3.36563e-06
1.00017e-07
3.31985e-06
8.48348e-08
3.28128e-06
7.13317e-08
3.24918e-06
5.92413e-08
3.22292e-06
4.83375e-08
3.202e-06
3.84249e-08
3.18597e-06
2.93318e-08
3.17448e-06
2.09029e-08
3.16728e-06
1.29945e-08
3.16416e-06
5.46863e-09
3.16499e-06
-1.81301e-09
3.16973e-06
-8.99573e-09
3.17842e-06
-1.62406e-08
3.19122e-06
-2.37364e-08
3.20839e-06
-3.17172e-08
3.23038e-06
-4.04882e-08
3.25786e-06
-5.04666e-08
3.2918e-06
-6.22484e-08
3.33364e-06
-7.67166e-08
3.38547e-06
-9.52262e-08
3.45032e-06
-1.19918e-07
3.53261e-06
-1.54257e-07
3.63852e-06
-2.03939e-07
3.77624e-06
-2.78327e-07
3.95488e-06
-3.92441e-07
4.17965e-06
-5.69192e-07
4.43667e-06
-8.39465e-07
-1.22585e-06
4.66673e-06
1.04653e-05
1.46561e-06
1.07771e-05
2.94026e-06
1.06758e-05
3.35591e-06
1.02725e-05
3.22938e-06
9.71463e-06
2.88092e-06
9.10801e-06
2.47664e-06
8.51516e-06
2.09305e-06
7.96692e-06
1.75796e-06
7.47488e-06
1.47603e-06
7.04041e-06
1.24266e-06
6.66003e-06
1.05044e-06
6.32839e-06
8.91933e-07
6.03973e-06
7.60641e-07
5.78859e-06
6.51216e-07
5.57007e-06
5.59383e-07
5.37988e-06
4.81765e-07
5.21432e-06
4.15701e-07
5.07026e-06
3.59093e-07
4.945e-06
3.10274e-07
4.83625e-06
2.67916e-07
4.74205e-06
2.30949e-07
4.66074e-06
1.98501e-07
4.5909e-06
1.69861e-07
4.5313e-06
1.44438e-07
4.48089e-06
1.21738e-07
4.43879e-06
1.01341e-07
4.40424e-06
8.28881e-08
4.3766e-06
6.6064e-08
4.35534e-06
5.05894e-08
4.34004e-06
3.621e-08
4.33034e-06
2.26878e-08
4.32602e-06
9.79233e-09
4.32691e-06
-2.70842e-09
4.33298e-06
-1.50594e-08
4.34427e-06
-2.75323e-08
4.36098e-06
-4.04444e-08
4.38344e-06
-5.4185e-08
4.41221e-06
-6.92537e-08
4.44806e-06
-8.6319e-08
4.49212e-06
-1.06305e-07
4.54593e-06
-1.30528e-07
4.61161e-06
-1.60904e-07
4.69196e-06
-2.0027e-07
4.79057e-06
-2.52863e-07
4.91162e-06
-3.24989e-07
5.05913e-06
-4.25837e-07
5.2348e-06
-5.68118e-07
5.43331e-06
-7.67701e-07
5.63389e-06
-1.04005e-06
-1.38709e-06
5.79513e-06
1.0342e-05
1.12359e-06
1.07373e-05
2.54503e-06
1.09003e-05
3.19284e-06
1.08068e-05
3.32291e-06
1.05226e-05
3.16515e-06
1.01251e-05
2.87414e-06
9.67675e-06
2.54137e-06
9.21985e-06
2.21486e-06
8.77956e-06
1.91632e-06
8.36918e-06
1.65304e-06
7.99445e-06
1.42517e-06
7.65667e-06
1.22971e-06
7.35473e-06
1.06258e-06
7.08631e-06
9.19638e-07
6.84858e-06
7.97113e-07
6.63862e-06
6.91723e-07
6.45362e-06
6.00703e-07
6.29097e-06
5.21745e-07
6.1483e-06
4.52941e-07
6.02351e-06
3.92708e-07
5.91473e-06
3.39734e-07
5.8203e-06
2.92929e-07
5.73878e-06
2.51375e-07
5.66892e-06
2.143e-07
5.60962e-06
1.81046e-07
5.55991e-06
1.51046e-07
5.51899e-06
1.23806e-07
5.48616e-06
9.88917e-08
5.46084e-06
7.59093e-08
5.44256e-06
5.44985e-08
5.43093e-06
3.43187e-08
5.42568e-06
1.50381e-08
5.42665e-06
-3.67931e-09
5.43378e-06
-2.21882e-08
5.44713e-06
-4.08808e-08
5.46689e-06
-6.0211e-08
5.49344e-06
-8.07279e-08
5.52731e-06
-1.03122e-07
5.56928e-06
-1.28292e-07
5.62041e-06
-1.5744e-07
5.68209e-06
-1.92207e-07
5.75605e-06
-2.34865e-07
5.84436e-06
-2.8858e-07
5.94925e-06
-3.57744e-07
6.0726e-06
-4.48341e-07
6.21496e-06
-5.68198e-07
6.3736e-06
-7.26762e-07
6.53959e-06
-9.3369e-07
6.69463e-06
-1.19508e-06
-1.50532e-06
6.81285e-06
1.02416e-05
8.81949e-07
1.06171e-05
2.1696e-06
1.08951e-05
2.91479e-06
1.09957e-05
3.22237e-06
1.09248e-05
3.23599e-06
1.07228e-05
3.07613e-06
1.04357e-05
2.82855e-06
1.01024e-05
2.5481e-06
9.75203e-06
2.26672e-06
9.40388e-06
2.00119e-06
9.07004e-06
1.75902e-06
8.7573e-06
1.54244e-06
8.46898e-06
1.3509e-06
8.20615e-06
1.18247e-06
7.96851e-06
1.03475e-06
7.75502e-06
9.05218e-07
7.56419e-06
7.9153e-07
7.39439e-06
6.91553e-07
7.24392e-06
6.03409e-07
7.11115e-06
5.2547e-07
6.99456e-06
4.56331e-07
6.89271e-06
3.94781e-07
6.8043e-06
3.39777e-07
6.72818e-06
2.90419e-07
6.66331e-06
2.45921e-07
6.60876e-06
2.05596e-07
6.56373e-06
1.68834e-07
6.52753e-06
1.3509e-07
6.49958e-06
1.03865e-07
6.47938e-06
7.46964e-08
6.46656e-06
4.71423e-08
6.46082e-06
2.07699e-08
6.46201e-06
-4.86087e-09
6.47003e-06
-3.02141e-08
6.48495e-06
-5.57997e-08
6.50694e-06
-8.22016e-08
6.53633e-06
-1.10114e-07
6.57359e-06
-1.40389e-07
6.61941e-06
-1.74107e-07
6.67463e-06
-2.12662e-07
6.7403e-06
-2.57879e-07
6.81761e-06
-3.12169e-07
6.90773e-06
-3.78699e-07
7.01156e-06
-4.61576e-07
7.12918e-06
-5.65958e-07
7.25892e-06
-6.97947e-07
7.39614e-06
-8.63976e-07
7.53174e-06
-1.06929e-06
7.65173e-06
-1.31507e-06
-1.59394e-06
7.74035e-06
1.01727e-05
7.09201e-07
1.0498e-05
1.84434e-06
1.08084e-05
2.60441e-06
1.10139e-05
3.01689e-06
1.10882e-05
3.16166e-06
1.10418e-05
3.12253e-06
1.09008e-05
2.96956e-06
1.06942e-05
2.75471e-06
1.04476e-05
2.51324e-06
1.01814e-05
2.26741e-06
9.91025e-06
2.03019e-06
9.64422e-06
1.80847e-06
9.38987e-06
1.60525e-06
9.15109e-06
1.42125e-06
8.92996e-06
1.25587e-06
8.72731e-06
1.10787e-06
8.54314e-06
9.75695e-07
8.37697e-06
8.57728e-07
8.22798e-06
7.52399e-07
8.09521e-06
6.58241e-07
7.97762e-06
5.7392e-07
7.87417e-06
4.98234e-07
7.78384e-06
4.30107e-07
7.70567e-06
3.68582e-07
7.63879e-06
3.12804e-07
7.58238e-06
2.62005e-07
7.53572e-06
2.15491e-07
7.49818e-06
1.72629e-07
7.46922e-06
1.32833e-07
7.44836e-06
9.55497e-08
7.43526e-06
6.02484e-08
7.42962e-06
2.64035e-08
7.43128e-06
-6.52022e-09
7.44016e-06
-3.90864e-08
7.45627e-06
-7.19099e-08
7.47975e-06
-1.05686e-07
7.51086e-06
-1.41225e-07
7.54998e-06
-1.79503e-07
7.59758e-06
-2.21714e-07
7.65428e-06
-2.69354e-07
7.7207e-06
-3.24302e-07
7.79745e-06
-3.88923e-07
7.88492e-06
-4.66167e-07
7.98296e-06
-5.59619e-07
8.09045e-06
-6.73449e-07
8.20464e-06
-8.12131e-07
8.32042e-06
-9.7976e-07
8.42991e-06
-1.17879e-06
8.52293e-06
-1.40809e-06
-1.6607e-06
8.58969e-06
1.01274e-05
5.81812e-07
1.04004e-05
1.57135e-06
1.07032e-05
2.30155e-06
1.09558e-05
2.76437e-06
1.1119e-05
2.99842e-06
1.11846e-05
3.05698e-06
1.11619e-05
2.99222e-06
1.10685e-05
2.84806e-06
1.09237e-05
2.65812e-06
1.07447e-05
2.44631e-06
1.05463e-05
2.22866e-06
1.03394e-05
2.01533e-06
1.01324e-05
1.81228e-06
9.93095e-06
1.62269e-06
9.73895e-06
1.44787e-06
9.5588e-06
1.28802e-06
9.39188e-06
1.14262e-06
9.23879e-06
1.01081e-06
9.09966e-06
8.91527e-07
8.97426e-06
7.83645e-07
8.86213e-06
6.8605e-07
8.7627e-06
5.97668e-07
8.67531e-06
5.17494e-07
8.5993e-06
4.44591e-07
8.53401e-06
3.78096e-07
8.4788e-06
3.17211e-07
8.43309e-06
2.61198e-07
8.39636e-06
2.09366e-07
8.36812e-06
1.61067e-07
8.34799e-06
1.1568e-07
8.33564e-06
7.26016e-08
8.33081e-06
3.12293e-08
8.33334e-06
-9.05116e-09
8.34314e-06
-4.88859e-08
8.36021e-06
-8.89745e-08
8.38462e-06
-1.30097e-07
8.41654e-06
-1.73149e-07
8.45622e-06
-2.19179e-07
8.50394e-06
-2.69438e-07
8.56003e-06
-3.25438e-07
8.62474e-06
-3.8901e-07
8.69817e-06
-4.62355e-07
8.78008e-06
-5.48081e-07
8.86964e-06
-6.49174e-07
8.96505e-06
-7.68858e-07
9.06319e-06
-9.1027e-07
9.15927e-06
-1.07585e-06
9.24689e-06
-1.2664e-06
9.31871e-06
-1.47991e-06
-1.71043e-06
9.36843e-06
1.00972e-05
4.84621e-07
1.03247e-05
1.34384e-06
1.06037e-05
2.02254e-06
1.08694e-05
2.49873e-06
1.10812e-05
2.78658e-06
1.12211e-05
2.91704e-06
1.12871e-05
2.9262e-06
1.12868e-05
2.84839e-06
1.12322e-05
2.71273e-06
1.11365e-05
2.54205e-06
1.10119e-05
2.35325e-06
1.0869e-05
2.15824e-06
1.07163e-05
1.965e-06
1.05603e-05
1.77863e-06
1.04061e-05
1.60214e-06
1.0257e-05
1.43709e-06
1.01155e-05
1.2841e-06
9.98321e-06
1.14312e-06
9.861e-06
1.01373e-06
9.74938e-06
8.95273e-07
9.64846e-06
7.86964e-07
9.55817e-06
6.87961e-07
9.47825e-06
5.97411e-07
9.40837e-06
5.14474e-07
9.34812e-06
4.38339e-07
9.29711e-06
3.68229e-07
9.2549e-06
3.03402e-07
9.22112e-06
2.43148e-07
9.1954e-06
1.86787e-07
9.17743e-06
1.33652e-07
9.16694e-06
8.30911e-08
9.16372e-06
3.44464e-08
9.16763e-06
-1.29556e-08
9.17856e-06
-5.98214e-08
9.1965e-06
-1.06911e-07
9.22146e-06
-1.55062e-07
9.25353e-06
-2.05217e-07
9.29281e-06
-2.58455e-07
9.3394e-06
-3.16031e-07
9.39337e-06
-3.7941e-07
9.45467e-06
-4.50303e-07
9.523e-06
-5.30683e-07
9.59769e-06
-6.22776e-07
9.6775e-06
-7.28983e-07
9.76036e-06
-8.51722e-07
9.8432e-06
-9.93108e-07
9.92183e-06
-1.15448e-06
9.99117e-06
-1.33574e-06
1.00459e-05
-1.53465e-06
-1.74635e-06
1.00818e-05
1.00765e-05
4.08151e-07
1.02668e-05
1.15353e-06
1.05172e-05
1.77209e-06
1.07777e-05
2.23829e-06
1.10114e-05
2.55281e-06
1.11969e-05
2.73155e-06
1.13253e-05
2.79783e-06
1.13968e-05
2.77688e-06
1.14173e-05
2.69228e-06
1.13952e-05
2.56416e-06
1.13397e-05
2.40866e-06
1.12599e-05
2.23812e-06
1.11633e-05
2.06157e-06
1.10566e-05
1.88536e-06
1.09449e-05
1.7138e-06
1.08324e-05
1.5496e-06
1.07221e-05
1.39438e-06
1.06163e-05
1.24894e-06
1.05165e-05
1.1135e-06
1.04238e-05
9.87931e-07
1.0339e-05
8.71849e-07
1.02622e-05
7.64709e-07
1.01938e-05
6.65876e-07
1.01336e-05
5.74666e-07
1.00815e-05
4.90371e-07
1.00375e-05
4.12283e-07
1.00012e-05
3.39697e-07
9.97241e-06
2.71917e-07
9.95094e-06
2.08258e-07
9.93655e-06
1.48042e-07
9.92905e-06
9.05873e-08
9.92829e-06
3.52057e-08
9.93415e-06
-1.88122e-08
9.94654e-06
-7.22103e-08
9.96541e-06
-1.25783e-07
9.99074e-06
-1.80397e-07
1.00225e-05
-2.37008e-07
1.00608e-05
-2.96691e-07
1.01054e-05
-3.60661e-07
1.01563e-05
-4.30294e-07
1.02131e-05
-5.07142e-07
1.02754e-05
-5.92924e-07
1.03421e-05
-6.8949e-07
1.04118e-05
-7.98731e-07
1.04825e-05
-9.22412e-07
1.05513e-05
-1.06191e-06
1.06147e-05
-1.21786e-06
1.06687e-05
-1.38971e-06
1.07094e-05
-1.57532e-06
-1.77076e-06
1.07338e-05
1.00617e-05
3.46402e-07
1.02223e-05
9.93018e-07
1.04446e-05
1.54974e-06
1.06909e-05
1.99198e-06
1.09301e-05
2.31367e-06
1.11405e-05
2.52113e-06
1.131e-05
2.6283e-06
1.14342e-05
2.65274e-06
1.15139e-05
2.61254e-06
1.15536e-05
2.52446e-06
1.15594e-05
2.4029e-06
1.15378e-05
2.25965e-06
1.14955e-05
2.10394e-06
1.14381e-05
1.94275e-06
1.13707e-05
1.78119e-06
1.12975e-05
1.62283e-06
1.12217e-05
1.47011e-06
1.11461e-05
1.32453e-06
1.10727e-05
1.18695e-06
1.10029e-05
1.05776e-06
1.09377e-05
9.36968e-07
1.08781e-05
8.24376e-07
1.08244e-05
7.19599e-07
1.07769e-05
6.22149e-07
1.07358e-05
5.31462e-07
1.07011e-05
4.46933e-07
1.06729e-05
3.67927e-07
1.0651e-05
2.93796e-07
1.06354e-05
2.23879e-07
1.06259e-05
1.57508e-07
1.06225e-05
9.40003e-08
1.06251e-05
3.26597e-08
1.06335e-05
-2.72364e-08
1.06477e-05
-8.64453e-08
1.06677e-05
-1.45772e-07
1.06934e-05
-2.06083e-07
1.07247e-05
-2.68324e-07
1.07616e-05
-3.33532e-07
1.08038e-05
-4.02855e-07
1.0851e-05
-4.77555e-07
1.09029e-05
-5.59007e-07
1.09586e-05
-6.48679e-07
1.10172e-05
-7.48083e-07
1.10772e-05
-8.5868e-07
1.11365e-05
-9.81735e-07
1.11927e-05
-1.11811e-06
1.12428e-05
-1.26801e-06
1.12838e-05
-1.43067e-06
1.13127e-05
-1.60418e-06
-1.78536e-06
1.13273e-05
1.00509e-05
2.95457e-07
1.01877e-05
8.56292e-07
1.03845e-05
1.35292e-06
1.0613e-05
1.76345e-06
1.08478e-05
2.07888e-06
1.10691e-05
2.2998e-06
1.12638e-05
2.43364e-06
1.14246e-05
2.49194e-06
1.15491e-05
2.48797e-06
1.16386e-05
2.43504e-06
1.16961e-05
2.34537e-06
1.17262e-05
2.22958e-06
1.17336e-05
2.09651e-06
1.17231e-05
1.95319e-06
1.16992e-05
1.80511e-06
1.16657e-05
1.65637e-06
1.16258e-05
1.50997e-06
1.15824e-05
1.36798e-06
1.15375e-05
1.23178e-06
1.14931e-05
1.10222e-06
1.14503e-05
9.79709e-07
1.14104e-05
8.64362e-07
1.13739e-05
7.56066e-07
1.13415e-05
6.54544e-07
1.13136e-05
5.594e-07
1.12903e-05
4.70156e-07
1.1272e-05
3.86275e-07
1.12586e-05
3.07175e-07
1.12502e-05
2.32247e-07
1.12469e-05
1.60855e-07
1.12485e-05
9.23383e-08
1.12552e-05
2.60131e-08
1.12668e-05
-3.88344e-08
1.12833e-05
-1.02953e-07
1.13047e-05
-1.67136e-07
1.13308e-05
-2.32229e-07
1.13616e-05
-2.99142e-07
1.13969e-05
-3.68856e-07
1.14365e-05
-4.4243e-07
1.148e-05
-5.20999e-07
1.15267e-05
-6.05764e-07
1.1576e-05
-6.97961e-07
1.16267e-05
-7.98806e-07
1.16775e-05
-9.09415e-07
1.17264e-05
-1.03068e-06
1.17714e-05
-1.16311e-06
1.18101e-05
-1.30665e-06
1.18399e-05
-1.46049e-06
1.18587e-05
-1.62295e-06
-1.79147e-06
1.18648e-05
1.00428e-05
2.52665e-07
1.01605e-05
7.38632e-07
1.03349e-05
1.17849e-06
1.05449e-05
1.55347e-06
1.077e-05
1.85373e-06
1.09931e-05
2.07669e-06
1.12013e-05
2.22544e-06
1.13862e-05
2.30707e-06
1.15433e-05
2.3309e-06
1.16712e-05
2.30708e-06
1.1771e-05
2.24558e-06
1.1845e-05
2.15558e-06
1.18965e-05
2.04506e-06
1.19289e-05
1.92076e-06
1.19459e-05
1.78816e-06
1.19506e-05
1.65158e-06
1.19463e-05
1.51435e-06
1.19353e-05
1.37893e-06
1.192e-05
1.24709e-06
1.19022e-05
1.12005e-06
1.18833e-05
9.98549e-07
1.18647e-05
8.83011e-07
1.18472e-05
7.7357e-07
1.18316e-05
6.70159e-07
1.18184e-05
5.72554e-07
1.18082e-05
4.80417e-07
1.18011e-05
3.9332e-07
1.17975e-05
3.1077e-07
1.17975e-05
2.32222e-07
1.18013e-05
1.57092e-07
1.18089e-05
8.47598e-08
1.18203e-05
1.45723e-08
1.18356e-05
-5.41567e-08
1.18548e-05
-1.22149e-07
1.18779e-05
-1.90168e-07
1.19047e-05
-2.59019e-07
1.19351e-05
-3.29561e-07
1.19689e-05
-4.02702e-07
1.20059e-05
-4.79404e-07
1.20456e-05
-5.60674e-07
1.20874e-05
-6.47544e-07
1.21304e-05
-7.41042e-07
1.21738e-05
-8.4214e-07
1.2216e-05
-9.51683e-07
1.22556e-05
-1.07029e-06
1.22908e-05
-1.19823e-06
1.23194e-05
-1.33529e-06
1.23396e-05
-1.48071e-06
1.23497e-05
-1.63301e-06
-1.79014e-06
1.23483e-05
1.00365e-05
2.16165e-07
1.01388e-05
6.36351e-07
1.0294e-05
1.02332e-06
1.04861e-05
1.36129e-06
1.06991e-05
1.64072e-06
1.09184e-05
1.85741e-06
1.11321e-05
2.01174e-06
1.13316e-05
2.10763e-06
1.15111e-05
2.15131e-06
1.16679e-05
2.15028e-06
1.18011e-05
2.1124e-06
1.19114e-05
2.04528e-06
1.20006e-05
1.95591e-06
1.20709e-05
1.85044e-06
1.2125e-05
1.73407e-06
1.21655e-05
1.61108e-06
1.21949e-05
1.48493e-06
1.22156e-05
1.35828e-06
1.22295e-05
1.23316e-06
1.22385e-05
1.11105e-06
1.22441e-05
9.92965e-07
1.22475e-05
8.79561e-07
1.22499e-05
7.71194e-07
1.22521e-05
6.67989e-07
1.22547e-05
5.69888e-07
1.22585e-05
4.7669e-07
1.22637e-05
3.8808e-07
1.22708e-05
3.03662e-07
1.22801e-05
2.22967e-07
1.22917e-05
1.45475e-07
1.23058e-05
7.06179e-08
1.23226e-05
-2.21043e-09
1.23421e-05
-7.36543e-08
1.23643e-05
-1.44394e-07
1.23893e-05
-2.15146e-07
1.2417e-05
-2.86666e-07
1.24472e-05
-3.59745e-07
1.24797e-05
-4.35214e-07
1.25142e-05
-5.13932e-07
1.25503e-05
-5.96778e-07
1.25874e-05
-6.84633e-07
1.26247e-05
-7.78344e-07
1.26612e-05
-8.78682e-07
1.26958e-05
-9.86279e-07
1.27271e-05
-1.10155e-06
1.27535e-05
-1.22462e-06
1.27734e-05
-1.3552e-06
1.27852e-05
-1.49256e-06
1.27877e-05
-1.63547e-06
-1.78222e-06
1.27798e-05
1.00316e-05
1.84604e-07
1.01214e-05
5.46555e-07
1.02601e-05
8.84561e-07
1.04359e-05
1.1855e-06
1.0636e-05
1.44065e-06
1.08482e-05
1.6452e-06
1.1062e-05
1.7979e-06
1.12691e-05
1.90052e-06
1.14634e-05
1.95701e-06
1.1641e-05
1.97269e-06
1.17999e-05
1.95357e-06
1.19393e-05
1.90582e-06
1.20599e-05
1.83534e-06
1.21628e-05
1.74753e-06
1.22497e-05
1.64716e-06
1.23225e-05
1.53828e-06
1.23831e-05
1.42428e-06
1.24335e-05
1.30788e-06
1.24755e-05
1.19123e-06
1.25105e-05
1.07597e-06
1.25402e-05
9.63299e-07
1.25657e-05
8.54048e-07
1.25882e-05
7.4875e-07
1.26085e-05
6.47691e-07
1.26274e-05
5.50955e-07
1.26456e-05
4.58467e-07
1.26637e-05
3.70025e-07
1.2682e-05
2.85324e-07
1.2701e-05
2.03979e-07
1.27209e-05
1.25537e-07
1.27421e-05
4.94941e-08
1.27646e-05
-2.47013e-08
1.27885e-05
-9.76405e-08
1.28141e-05
-1.69951e-07
1.28412e-05
-2.42293e-07
1.28699e-05
-3.15361e-07
1.29001e-05
-3.89873e-07
1.29314e-05
-4.66575e-07
1.29637e-05
-5.46226e-07
1.29965e-05
-6.29586e-07
1.30293e-05
-7.17396e-07
1.30613e-05
-8.10351e-07
1.30917e-05
-9.09056e-07
1.31194e-05
-1.01398e-06
1.31432e-05
-1.1254e-06
1.31619e-05
-1.24332e-06
1.31742e-05
-1.36744e-06
1.31787e-05
-1.49709e-06
1.31744e-05
-1.63121e-06
-1.76841e-06
1.31606e-05
1.00276e-05
1.56972e-07
1.01072e-05
4.66947e-07
1.02321e-05
7.59687e-07
1.03932e-05
1.02438e-06
1.05806e-05
1.25332e-06
1.07841e-05
1.44166e-06
1.09947e-05
1.5873e-06
1.12046e-05
1.6906e-06
1.14078e-05
1.75386e-06
1.15998e-05
1.78072e-06
1.17777e-05
1.77567e-06
1.19399e-05
1.74354e-06
1.20861e-05
1.68921e-06
1.22163e-05
1.61729e-06
1.23315e-05
1.53198e-06
1.24328e-05
1.437e-06
1.25215e-05
1.33554e-06
1.25992e-05
1.23024e-06
1.26671e-05
1.12325e-06
1.27268e-05
1.01627e-06
1.27795e-05
9.10608e-07
1.28264e-05
8.07199e-07
1.28684e-05
7.06702e-07
1.29066e-05
6.09521e-07
1.29417e-05
5.15857e-07
1.29744e-05
4.25742e-07
1.30054e-05
3.3907e-07
1.30351e-05
2.55624e-07
1.3064e-05
1.75098e-07
1.30924e-05
9.711e-08
1.31207e-05
2.12212e-08
1.3149e-05
-5.30588e-08
1.31776e-05
-1.26262e-07
1.32066e-05
-1.98955e-07
1.32361e-05
-2.71738e-07
1.3266e-05
-3.45234e-07
1.32962e-05
-4.20089e-07
1.33266e-05
-4.96961e-07
1.33568e-05
-5.7651e-07
1.33866e-05
-6.59387e-07
1.34155e-05
-7.46211e-07
1.34427e-05
-8.37546e-07
1.34675e-05
-9.33863e-07
1.3489e-05
-1.03551e-06
1.35062e-05
-1.14264e-06
1.35181e-05
-1.25522e-06
1.35236e-05
-1.37292e-06
1.35216e-05
-1.49514e-06
1.35114e-05
-1.62098e-06
-1.74928e-06
1.34923e-05
1.00245e-05
1.3249e-07
1.00958e-05
3.95676e-07
1.02089e-05
6.46509e-07
1.03572e-05
8.76142e-07
1.05326e-05
1.07794e-06
1.07269e-05
1.24734e-06
1.09323e-05
1.38189e-06
1.11418e-05
1.4811e-06
1.13495e-05
1.54611e-06
1.15509e-05
1.57933e-06
1.17426e-05
1.584e-06
1.19223e-05
1.56384e-06
1.20887e-05
1.52276e-06
1.22414e-05
1.4646e-06
1.23804e-05
1.39299e-06
1.25062e-05
1.3112e-06
1.26196e-05
1.22214e-06
1.27216e-05
1.12826e-06
1.28132e-05
1.03165e-06
1.28955e-05
9.33959e-07
1.29696e-05
8.36513e-07
1.30365e-05
7.40308e-07
1.30971e-05
6.46065e-07
1.31524e-05
5.54268e-07
1.3203e-05
4.65198e-07
1.32498e-05
3.78969e-07
1.32933e-05
2.95554e-07
1.33341e-05
2.14811e-07
1.33727e-05
1.36506e-07
1.34095e-05
6.03251e-08
1.34449e-05
-1.4107e-08
1.3479e-05
-8.72177e-08
1.35122e-05
-1.59477e-07
1.35447e-05
-2.31389e-07
1.35764e-05
-3.03487e-07
1.36075e-05
-3.76324e-07
1.36379e-05
-4.50468e-07
1.36674e-05
-5.26493e-07
1.36959e-05
-6.04968e-07
1.37229e-05
-6.86441e-07
1.37481e-05
-7.71425e-07
1.3771e-05
-8.60371e-07
1.37907e-05
-9.53643e-07
1.38067e-05
-1.05148e-06
1.38181e-05
-1.15399e-06
1.38239e-05
-1.26105e-06
1.38234e-05
-1.37237e-06
1.38156e-05
-1.48741e-06
1.38e-05
-1.60538e-06
-1.72533e-06
1.37761e-05
1.00219e-05
1.10544e-07
1.00864e-05
3.3123e-07
1.01898e-05
5.43122e-07
1.03269e-05
7.39041e-07
1.04914e-05
9.13394e-07
1.06767e-05
1.06209e-06
1.08759e-05
1.18262e-06
1.1083e-05
1.27405e-06
1.12924e-05
1.33675e-06
1.14995e-05
1.37224e-06
1.17007e-05
1.38278e-06
1.18933e-05
1.37118e-06
1.20756e-05
1.34051e-06
1.22463e-05
1.2939e-06
1.24049e-05
1.23437e-06
1.25514e-05
1.16474e-06
1.26859e-05
1.08757e-06
1.28091e-05
1.00508e-06
1.29216e-05
9.19167e-07
1.30242e-05
8.31403e-07
1.31176e-05
7.43056e-07
1.32028e-05
6.55113e-07
1.32806e-05
5.68312e-07
1.33517e-05
4.8317e-07
1.34168e-05
4.00015e-07
1.34768e-05
3.19015e-07
1.35321e-05
2.40202e-07
1.35835e-05
1.63492e-07
1.36313e-05
8.87118e-08
1.3676e-05
1.56077e-08
1.3718e-05
-5.61353e-08
1.37577e-05
-1.26884e-07
1.37952e-05
-1.97047e-07
1.38309e-05
-2.67065e-07
1.38648e-05
-3.37404e-07
1.38971e-05
-4.08548e-07
1.39276e-05
-4.80988e-07
1.39563e-05
-5.55217e-07
1.39831e-05
-6.31717e-07
1.40076e-05
-7.10946e-07
1.40295e-05
-7.9332e-07
1.40483e-05
-8.79197e-07
1.40635e-05
-9.68849e-07
1.40744e-05
-1.06245e-06
1.40805e-05
-1.16002e-06
1.40809e-05
-1.26144e-06
1.40749e-05
-1.36642e-06
1.4062e-05
-1.47447e-06
1.40415e-05
-1.58492e-06
-1.69695e-06
1.40131e-05
1.00199e-05
9.06399e-08
1.00788e-05
2.72347e-07
1.0174e-05
4.47862e-07
1.03017e-05
6.11424e-07
1.04566e-05
7.58414e-07
1.06334e-05
8.85297e-07
1.08263e-05
9.89729e-07
1.10298e-05
1.07056e-06
1.12388e-05
1.12773e-06
1.1449e-05
1.1621e-06
1.16565e-05
1.17523e-06
1.18585e-05
1.16917e-06
1.20528e-05
1.14628e-06
1.22376e-05
1.10904e-06
1.24121e-05
1.05992e-06
1.25755e-05
1.00128e-06
1.27278e-05
9.35282e-07
1.2869e-05
8.63864e-07
1.29995e-05
7.88704e-07
1.31197e-05
7.11219e-07
1.32302e-05
6.32571e-07
1.33316e-05
5.53686e-07
1.34246e-05
4.75269e-07
1.351e-05
3.97831e-07
1.35883e-05
3.21715e-07
1.36602e-05
2.4711e-07
1.37263e-05
1.74085e-07
1.37872e-05
1.026e-07
1.38434e-05
3.25256e-08
1.38953e-05
-3.63398e-08
1.39435e-05
-1.04258e-07
1.39881e-05
-1.7154e-07
1.40296e-05
-2.38536e-07
1.40682e-05
-3.05624e-07
1.4104e-05
-3.73206e-07
1.41371e-05
-4.41696e-07
1.41676e-05
-5.11514e-07
1.41955e-05
-5.83077e-07
1.42206e-05
-6.56784e-07
1.42426e-05
-7.33012e-07
1.42614e-05
-8.12093e-07
1.42765e-05
-8.94303e-07
1.42875e-05
-9.79842e-07
1.42939e-05
-1.06881e-06
1.42951e-05
-1.16121e-06
1.42905e-05
-1.25689e-06
1.42796e-05
-1.35556e-06
1.4262e-05
-1.45679e-06
1.4237e-05
-1.56e-06
-1.66448e-06
1.42046e-05
1.00183e-05
7.23677e-08
1.00727e-05
2.17961e-07
1.01613e-05
3.59262e-07
1.02809e-05
4.91734e-07
1.04277e-05
6.11656e-07
1.05969e-05
7.16083e-07
1.07837e-05
8.0295e-07
1.09832e-05
8.71099e-07
1.11907e-05
9.20224e-07
1.1402e-05
9.50761e-07
1.16135e-05
9.63738e-07
1.1822e-05
9.60627e-07
1.20251e-05
9.43191e-07
1.22208e-05
9.13343e-07
1.24077e-05
8.73039e-07
1.25848e-05
8.24177e-07
1.27516e-05
7.68539e-07
1.29077e-05
7.0774e-07
1.30532e-05
6.43203e-07
1.31883e-05
5.76147e-07
1.33132e-05
5.07585e-07
1.34286e-05
4.38336e-07
1.35348e-05
3.69035e-07
1.36325e-05
3.0015e-07
1.37222e-05
2.32003e-07
1.38045e-05
1.64783e-07
1.38801e-05
9.85714e-08
1.39493e-05
3.33513e-08
1.40128e-05
-3.09731e-08
1.4071e-05
-9.4564e-08
1.41244e-05
-1.57638e-07
1.41733e-05
-2.20457e-07
1.42181e-05
-2.83316e-07
1.4259e-05
-3.46535e-07
1.42963e-05
-4.10455e-07
1.433e-05
-4.75424e-07
1.43603e-05
-5.41795e-07
1.43871e-05
-6.0991e-07
1.44104e-05
-6.80097e-07
1.44301e-05
-7.52657e-07
1.44458e-05
-8.27848e-07
1.44574e-05
-9.05878e-07
1.44644e-05
-9.86882e-07
1.44665e-05
-1.07091e-06
1.44633e-05
-1.15793e-06
1.44541e-05
-1.24778e-06
1.44388e-05
-1.34018e-06
1.44167e-05
-1.43474e-06
1.43877e-05
-1.53095e-06
-1.62819e-06
1.43514e-05
1.0017e-05
5.53816e-08
1.00678e-05
1.67148e-07
1.0151e-05
2.76017e-07
1.02643e-05
3.78517e-07
1.04042e-05
4.71755e-07
1.05669e-05
5.53384e-07
1.07481e-05
6.2169e-07
1.09436e-05
6.75629e-07
1.1149e-05
7.14801e-07
1.13604e-05
7.39379e-07
1.15741e-05
7.50015e-07
1.1787e-05
7.47725e-07
1.19964e-05
7.33781e-07
1.22002e-05
7.09607e-07
1.23965e-05
6.76686e-07
1.25842e-05
6.36487e-07
1.27623e-05
5.90404e-07
1.29304e-05
5.39722e-07
1.3088e-05
4.85582e-07
1.32352e-05
4.28976e-07
1.3372e-05
3.70734e-07
1.34988e-05
3.11533e-07
1.36159e-05
2.51905e-07
1.37238e-05
1.92244e-07
1.3823e-05
1.32823e-07
1.3914e-05
7.38088e-08
1.39973e-05
1.5272e-08
1.40734e-05
-4.27961e-08
1.41429e-05
-1.00473e-07
1.42063e-05
-1.57891e-07
1.42639e-05
-2.15233e-07
1.43161e-05
-2.72715e-07
1.43634e-05
-3.30585e-07
1.4406e-05
-3.8911e-07
1.44441e-05
-4.48571e-07
1.44779e-05
-5.09258e-07
1.45076e-05
-5.71456e-07
1.45331e-05
-6.35444e-07
1.45545e-05
-7.01481e-07
1.45716e-05
-7.698e-07
1.45844e-05
-8.40595e-07
1.45925e-05
-9.14011e-07
1.45958e-05
-9.90131e-07
1.45938e-05
-1.06897e-06
1.45863e-05
-1.15045e-06
1.4573e-05
-1.2344e-06
1.45534e-05
-1.32057e-06
1.45272e-05
-1.4086e-06
1.44943e-05
-1.49802e-06
-1.58831e-06
1.44544e-05
1.0016e-05
3.93818e-08
1.00641e-05
1.19094e-07
1.01431e-05
1.96942e-07
1.02512e-05
2.70404e-07
1.03856e-05
3.37353e-07
1.0543e-05
3.96033e-07
1.07196e-05
4.45123e-07
1.09114e-05
4.83774e-07
1.11146e-05
5.11597e-07
1.13254e-05
5.28621e-07
1.15402e-05
5.35231e-07
1.17558e-05
5.32093e-07
1.19695e-05
5.20076e-07
1.21789e-05
5.00175e-07
1.23822e-05
4.73447e-07
1.25777e-05
4.40955e-07
1.27644e-05
4.03716e-07
1.29414e-05
3.62677e-07
1.31083e-05
3.18688e-07
1.32648e-05
2.72489e-07
1.34108e-05
2.24704e-07
1.35465e-05
1.75843e-07
1.36721e-05
1.26307e-07
1.3788e-05
7.63912e-08
1.38945e-05
2.63002e-08
1.39922e-05
-2.3847e-08
1.40814e-05
-7.40041e-08
1.41628e-05
-1.24188e-07
1.42368e-05
-1.7447e-07
1.43039e-05
-2.24964e-07
1.43645e-05
-2.75825e-07
1.4419e-05
-3.27233e-07
1.44678e-05
-3.79391e-07
1.45112e-05
-4.3252e-07
1.45495e-05
-4.86848e-07
1.45829e-05
-5.42605e-07
1.46114e-05
-6.0002e-07
1.46353e-05
-6.59308e-07
1.46545e-05
-7.20668e-07
1.46689e-05
-7.84272e-07
1.46786e-05
-8.50254e-07
1.46833e-05
-9.18706e-07
1.46828e-05
-9.89666e-07
1.4677e-05
-1.06311e-06
1.46655e-05
-1.13894e-06
1.4648e-05
-1.21698e-06
1.46244e-05
-1.29698e-06
1.45944e-05
-1.3786e-06
1.45578e-05
-1.46143e-06
-1.545e-06
1.45145e-05
1.00153e-05
2.41015e-08
1.00613e-05
7.3064e-08
1.01373e-05
1.20947e-07
1.02416e-05
1.66098e-07
1.03719e-05
2.07109e-07
1.05251e-05
2.42801e-07
1.06979e-05
2.72271e-07
1.08868e-05
2.94916e-07
1.1088e-05
3.10427e-07
1.12978e-05
3.18771e-07
1.15129e-05
3.20147e-07
1.17301e-05
3.14945e-07
1.19464e-05
3.03696e-07
1.21596e-05
2.87018e-07
1.23675e-05
2.6558e-07
1.25684e-05
2.40056e-07
1.2761e-05
2.11103e-07
1.29443e-05
1.79328e-07
1.31177e-05
1.4528e-07
1.32808e-05
1.09435e-07
1.34333e-05
7.21959e-08
1.35752e-05
3.38857e-08
1.37068e-05
-5.24506e-09
1.38282e-05
-4.50165e-08
1.39398e-05
-8.53129e-08
1.4042e-05
-1.26076e-07
1.41353e-05
-1.67299e-07
1.42202e-05
-2.09019e-07
1.4297e-05
-2.51311e-07
1.43663e-05
-2.9428e-07
1.44286e-05
-3.38057e-07
1.44841e-05
-3.82795e-07
1.45334e-05
-4.28659e-07
1.45767e-05
-4.75824e-07
1.46143e-05
-5.2447e-07
1.46465e-05
-5.74776e-07
1.46734e-05
-6.26914e-07
1.46951e-05
-6.81044e-07
1.47118e-05
-7.37308e-07
1.47233e-05
-7.95821e-07
1.47297e-05
-8.56668e-07
1.47309e-05
-9.19891e-07
1.47267e-05
-9.85488e-07
1.4717e-05
-1.0534e-06
1.47016e-05
-1.12351e-06
1.46803e-05
-1.19564e-06
1.46528e-05
-1.26954e-06
1.46191e-05
-1.3449e-06
1.4579e-05
-1.42134e-06
-1.49843e-06
1.45325e-05
1.00148e-05
9.29678e-09
1.00595e-05
2.83776e-08
1.01334e-05
4.7012e-08
1.02352e-05
6.4359e-08
1.03626e-05
7.96991e-08
1.0513e-05
9.24237e-08
1.06832e-05
1.02057e-07
1.08698e-05
1.08272e-07
1.10694e-05
1.10883e-07
1.12783e-05
1.09844e-07
1.14932e-05
1.05223e-07
1.1711e-05
9.71824e-08
1.19287e-05
8.59557e-08
1.21439e-05
7.18222e-08
1.23544e-05
5.50852e-08
1.25584e-05
3.60526e-08
1.27545e-05
1.50218e-08
1.29415e-05
-7.73304e-09
1.31188e-05
-3.19687e-08
1.32857e-05
-5.74789e-08
1.3442e-05
-8.40966e-08
1.35876e-05
-1.11695e-07
1.37225e-05
-1.40186e-07
1.3847e-05
-1.69518e-07
1.39614e-05
-1.99676e-07
1.4066e-05
-2.30674e-07
1.41612e-05
-2.62553e-07
1.42476e-05
-2.95378e-07
1.43255e-05
-3.29236e-07
1.43955e-05
-3.64228e-07
1.44579e-05
-4.00472e-07
1.45132e-05
-4.38092e-07
1.45617e-05
-4.77221e-07
1.46039e-05
-5.17994e-07
1.464e-05
-5.60546e-07
1.46702e-05
-6.05006e-07
1.46948e-05
-6.51498e-07
1.47139e-05
-7.00128e-07
1.47276e-05
-7.50986e-07
1.47359e-05
-8.04138e-07
1.47388e-05
-8.5962e-07
1.47364e-05
-9.17433e-07
1.47284e-05
-9.77539e-07
1.47149e-05
-1.03985e-06
1.46956e-05
-1.10423e-06
1.46704e-05
-1.17049e-06
1.46393e-05
-1.23839e-06
1.4602e-05
-1.30764e-06
1.45586e-05
-1.37787e-06
-1.44871e-06
1.45088e-05
1.00146e-05
-5.26154e-09
1.00585e-05