/*--------------------------------*- C++ -*----------------------------------*\
| =========                 |                                                 |
| \\      /  F ield         | OpenFOAM: The Open Source CFD Toolbox           |
|  \\    /   O peration     | Version:  2306                                  |
|   \\  /    A nd           | Website:  www.openfoam.com                      |
|    \\/     M anipulation  |                                                 |
\*---------------------------------------------------------------------------*/
FoamFile
{
    version     2.0;
    format      ascii;
    arch        "LSB;label=32;scalar=64";
    class       volVectorField;
    location    "0.33";
    object      U;
}
// * * * * * * * * * * * * * * * * * * * * * * * * * * * * * * * * * * * * * //

dimensions      [0 1 -1 0 0 0 0];

internalField   nonuniform List<vector> 
47500
(
(0.708058 0.141126 0)
(0.605107 0.126852 0)
(0.442238 0.0756733 0)
(0.323205 0.0428889 0)
(0.252628 0.0249084 0)
(0.207936 0.0151468 0)
(0.177257 0.00977786 0)
(0.155189 0.00671787 0)
(0.138693 0.00487348 0)
(0.125941 0.00368953 0)
(0.115824 0.00288362 0)
(0.107638 0.0023073 0)
(0.100917 0.00187859 0)
(0.0953326 0.00154966 0)
(0.0906521 0.00129104 0)
(0.0867016 0.00108366 0)
(0.0833497 0.000914647 0)
(0.080495 0.00077499 0)
(0.0780578 0.000658219 0)
(0.0759745 0.000559565 0)
(0.0741941 0.000475443 0)
(0.0726747 0.000403104 0)
(0.0713822 0.000340408 0)
(0.070288 0.000285663 0)
(0.0693687 0.000237508 0)
(0.0686043 0.000194837 0)
(0.0679786 0.000156734 0)
(0.0674776 0.00012243 0)
(0.06709 9.12698e-05 0)
(0.0668064 6.26805e-05 0)
(0.0666191 3.61549e-05 0)
(0.0665224 1.12296e-05 0)
(0.066512 -1.25331e-05 0)
(0.0665852 -3.55626e-05 0)
(0.0667411 -5.82984e-05 0)
(0.0669805 -8.12163e-05 0)
(0.0673064 -0.000104864 0)
(0.0677247 -0.000129914 0)
(0.0682447 -0.000157263 0)
(0.0688808 -0.000188247 0)
(0.069655 -0.000225131 0)
(0.070602 -0.000272374 0)
(0.071778 -0.000340009 0)
(0.0732831 -0.000452993 0)
(0.0753064 -0.000677008 0)
(0.0782237 -0.0011886 0)
(0.0829051 -0.00247117 0)
(0.0917824 -0.00592085 0)
(0.110525 -0.0158056 0)
(0.145452 -0.0449278 0)
(0.990012 0.273751 0)
(0.981277 0.298007 0)
(0.863903 0.21609 0)
(0.734143 0.146999 0)
(0.62832 0.100193 0)
(0.545478 0.0697709 0)
(0.480661 0.0501599 0)
(0.429788 0.0373103 0)
(0.389456 0.0286158 0)
(0.35704 0.0225129 0)
(0.330634 0.0180771 0)
(0.308865 0.0147521 0)
(0.290736 0.0121934 0)
(0.275511 0.0101802 0)
(0.262637 0.0085664 0)
(0.25169 0.00725222 0)
(0.242344 0.00616739 0)
(0.23434 0.00526126 0)
(0.227473 0.00449652 0)
(0.221577 0.00384511 0)
(0.216518 0.00328558 0)
(0.212183 0.00280124 0)
(0.208481 0.00237895 0)
(0.205335 0.00200815 0)
(0.202681 0.00168028 0)
(0.200465 0.0013883 0)
(0.198643 0.00112629 0)
(0.197175 0.000889239 0)
(0.196031 0.000672781 0)
(0.195186 0.000473057 0)
(0.194618 0.000286551 0)
(0.194312 0.000109948 0)
(0.194256 -6.00039e-05 0)
(0.194445 -0.000226653 0)
(0.194878 -0.000393642 0)
(0.195559 -0.000565185 0)
(0.196501 -0.000746473 0)
(0.197724 -0.000944309 0)
(0.199261 -0.00116819 0)
(0.201165 -0.00143219 0)
(0.203511 -0.00175859 0)
(0.206418 -0.00218502 0)
(0.210069 -0.00277947 0)
(0.214757 -0.00367306 0)
(0.220962 -0.0051331 0)
(0.229468 -0.00772372 0)
(0.24159 -0.0126562 0)
(0.259632 -0.0225977 0)
(0.286509 -0.0434409 0)
(0.320564 -0.0855887 0)
(1.02873 0.230537 0)
(1.06518 0.337272 0)
(1.02857 0.307935 0)
(0.952112 0.249931 0)
(0.866775 0.194722 0)
(0.785962 0.15009 0)
(0.714442 0.116323 0)
(0.653203 0.0913157 0)
(0.601488 0.0727582 0)
(0.557969 0.0588154 0)
(0.521296 0.0481659 0)
(0.490283 0.0398883 0)
(0.463946 0.0333444 0)
(0.441483 0.0280897 0)
(0.422252 0.0238102 0)
(0.405734 0.0202808 0)
(0.391513 0.0173371 0)
(0.379247 0.0148571 0)
(0.368659 0.0127488 0)
(0.35952 0.0109417 0)
(0.351639 0.00938103 0)
(0.344859 0.00802366 0)
(0.339046 0.00683514 0)
(0.334088 0.00578756 0)
(0.32989 0.00485806 0)
(0.326373 0.00402761 0)
(0.32347 0.00328016 0)
(0.321122 0.0026019 0)
(0.319284 0.00198078 0)
(0.317916 0.00140598 0)
(0.316988 0.000867522 0)
(0.316476 0.000355895 0)
(0.316363 -0.000138385 0)
(0.316642 -0.000625244 0)
(0.317312 -0.00111566 0)
(0.318382 -0.00162249 0)
(0.319872 -0.00216176 0)
(0.321817 -0.00275452 0)
(0.324271 -0.00342994 0)
(0.327314 -0.00423045 0)
(0.331062 -0.00522056 0)
(0.335686 -0.00650262 0)
(0.341434 -0.00824527 0)
(0.34867 -0.0107359 0)
(0.357914 -0.0144772 0)
(0.369886 -0.0203558 0)
(0.385496 -0.0299147 0)
(0.405719 -0.0457576 0)
(0.430604 -0.0719576 0)
(0.456297 -0.112706 0)
(1.02485 0.170713 0)
(1.0701 0.31458 0)
(1.08052 0.338862 0)
(1.05259 0.31134 0)
(1.00162 0.267048 0)
(0.941437 0.222038 0)
(0.880406 0.18251 0)
(0.822878 0.149852 0)
(0.770723 0.123532 0)
(0.724427 0.102474 0)
(0.68379 0.085598 0)
(0.648319 0.0719858 0)
(0.617437 0.0609105 0)
(0.590569 0.0518136 0)
(0.567196 0.0442701 0)
(0.546855 0.0379572 0)
(0.52915 0.0326285 0)
(0.513739 0.0280943 0)
(0.500333 0.0242071 0)
(0.488683 0.0208514 0)
(0.47858 0.0179355 0)
(0.469843 0.0153859 0)
(0.462317 0.013143 0)
(0.455873 0.0111578 0)
(0.450396 0.0093899 0)
(0.445791 0.00780507 0)
(0.441976 0.00637426 0)
(0.438881 0.00507223 0)
(0.436448 0.00387671 0)
(0.434629 0.00276753 0)
(0.433387 0.00172593 0)
(0.432691 0.000733834 0)
(0.432522 -0.000226909 0)
(0.432871 -0.00117543 0)
(0.433736 -0.00213298 0)
(0.43513 -0.00312445 0)
(0.437078 -0.00418064 0)
(0.439624 -0.00534155 0)
(0.442833 -0.00666148 0)
(0.446797 -0.00821705 0)
(0.451647 -0.0101201 0)
(0.457564 -0.0125383 0)
(0.464789 -0.015729 0)
(0.473644 -0.020093 0)
(0.484525 -0.0262569 0)
(0.49787 -0.0351873 0)
(0.514041 -0.0483123 0)
(0.533032 -0.0675682 0)
(0.553731 -0.0951207 0)
(0.572727 -0.131846 0)
(1.01676 0.128188 0)
(1.05701 0.275119 0)
(1.08731 0.331706 0)
(1.09071 0.333617 0)
(1.07009 0.308318 0)
(1.03427 0.272655 0)
(0.990737 0.235655 0)
(0.94469 0.201448 0)
(0.899384 0.171491 0)
(0.856631 0.145944 0)
(0.817295 0.124421 0)
(0.78167 0.106359 0)
(0.749727 0.091193 0)
(0.721271 0.0784148 0)
(0.696033 0.0675975 0)
(0.673717 0.0583901 0)
(0.654035 0.050508 0)
(0.636712 0.0437217 0)
(0.621501 0.0378458 0)
(0.608176 0.0327302 0)
(0.596541 0.0282526 0)
(0.586418 0.0243127 0)
(0.577654 0.0208276 0)
(0.570114 0.017728 0)
(0.563681 0.0149558 0)
(0.558252 0.0124611 0)
(0.55374 0.0102011 0)
(0.550068 0.00813806 0)
(0.547174 0.00623843 0)
(0.545005 0.00447147 0)
(0.543517 0.00280831 0)
(0.542679 0.00122096 0)
(0.542468 -0.000318881 0)
(0.542874 -0.00184108 0)
(0.543895 -0.00337876 0)
(0.545544 -0.00497048 0)
(0.547849 -0.00666334 0)
(0.550854 -0.00851729 0)
(0.554625 -0.0106117 0)
(0.559251 -0.0130546 0)
(0.564855 -0.0159973 0)
(0.571591 -0.0196546 0)
(0.579652 -0.0243356 0)
(0.589259 -0.0304847 0)
(0.600635 -0.0387333 0)
(0.613935 -0.0499489 0)
(0.629107 -0.0652425 0)
(0.645659 -0.0858488 0)
(0.662265 -0.112719 0)
(0.676466 -0.14549 0)
(1.01072 0.0991315 0)
(1.04301 0.235169 0)
(1.0786 0.30702 0)
(1.09883 0.330721 0)
(1.09974 0.324345 0)
(1.08498 0.301815 0)
(1.05947 0.272327 0)
(1.02764 0.241309 0)
(0.992877 0.211622 0)
(0.957576 0.184561 0)
(0.923253 0.160545 0)
(0.890805 0.139537 0)
(0.860701 0.121292 0)
(0.833135 0.105493 0)
(0.808128 0.0918117 0)
(0.785603 0.0799454 0)
(0.765425 0.069626 0)
(0.747434 0.0606225 0)
(0.731461 0.0527385 0)
(0.717339 0.0458081 0)
(0.704907 0.0396914 0)
(0.694018 0.0342703 0)
(0.684535 0.0294447 0)
(0.676337 0.0251293 0)
(0.669311 0.0212506 0)
(0.663361 0.0177452 0)
(0.658401 0.0145572 0)
(0.654356 0.0116371 0)
(0.651162 0.00894002 0)
(0.648765 0.00642457 0)
(0.647122 0.00405148 0)
(0.646201 0.00178237 0)
(0.645977 -0.000421667 0)
(0.646438 -0.00260171 0)
(0.647583 -0.00480308 0)
(0.649423 -0.00707801 0)
(0.651982 -0.00948919 0)
(0.655301 -0.0121147 0)
(0.659437 -0.015055 0)
(0.664466 -0.0184421 0)
(0.670484 -0.0224528 0)
(0.677604 -0.0273261 0)
(0.685948 -0.0333854 0)
(0.695631 -0.0410635 0)
(0.706717 -0.0509244 0)
(0.719154 -0.0636657 0)
(0.732661 -0.080067 0)
(0.746584 -0.100831 0)
(0.759748 -0.126243 0)
(0.770494 -0.155589 0)
(1.00696 0.0787059 0)
(1.03212 0.199737 0)
(1.0665 0.27624 0)
(1.09406 0.313696 0)
(1.10825 0.322644 0)
(1.10913 0.313166 0)
(1.09907 0.293158 0)
(1.08101 0.268128 0)
(1.0578 0.241581 0)
(1.03174 0.215571 0)
(1.00457 0.191181 0)
(0.977509 0.168896 0)
(0.951365 0.148846 0)
(0.926637 0.130971 0)
(0.903607 0.115115 0)
(0.882408 0.101081 0)
(0.863074 0.0886668 0)
(0.845573 0.0776774 0)
(0.829837 0.0679346 0)
(0.815774 0.0592787 0)
(0.803282 0.0515684 0)
(0.792255 0.0446802 0)
(0.78259 0.0385055 0)
(0.774189 0.0329496 0)
(0.766957 0.0279289 0)
(0.760812 0.0233694 0)
(0.755675 0.0192052 0)
(0.75148 0.0153765 0)
(0.748168 0.0118286 0)
(0.745687 0.00851023 0)
(0.743998 0.00537239 0)
(0.743067 0.00236684 0)
(0.742872 -0.000555494 0)
(0.743399 -0.00344635 0)
(0.744647 -0.0063624 0)
(0.746622 -0.00936815 0)
(0.749345 -0.0125397 0)
(0.752846 -0.0159694 0)
(0.757169 -0.0197728 0)
(0.762369 -0.0240963 0)
(0.76851 -0.0291282 0)
(0.775656 -0.0351109 0)
(0.783863 -0.0423541 0)
(0.793151 -0.051246 0)
(0.803471 -0.0622534 0)
(0.814647 -0.0758993 0)
(0.826301 -0.0926926 0)
(0.837791 -0.112985 0)
(0.848178 -0.136738 0)
(0.856358 -0.163214 0)
(1.00471 0.0639286 0)
(1.02437 0.169811 0)
(1.05518 0.244954 0)
(1.08471 0.289744 0)
(1.1061 0.309617 0)
(1.11748 0.311212 0)
(1.11927 0.300615 0)
(1.11301 0.282687 0)
(1.10065 0.260961 0)
(1.08407 0.237825 0)
(1.06488 0.214791 0)
(1.04438 0.192748 0)
(1.02352 0.172166 0)
(1.00298 0.153249 0)
(0.983231 0.136037 0)
(0.964578 0.120476 0)
(0.9472 0.106458 0)
(0.931191 0.093857 0)
(0.916582 0.0825359 0)
(0.903364 0.0723618 0)
(0.891501 0.0632089 0)
(0.880938 0.0549605 0)
(0.871613 0.0475103 0)
(0.86346 0.0407617 0)
(0.856411 0.034627 0)
(0.850402 0.0290268 0)
(0.84537 0.0238883 0)
(0.84126 0.0191446 0)
(0.838023 0.0147333 0)
(0.835614 0.010595 0)
(0.833997 0.00667246 0)
(0.833144 0.00290888 0)
(0.833033 -0.000753713 0)
(0.833651 -0.00437628 0)
(0.834994 -0.00802514 0)
(0.837065 -0.0117747 0)
(0.839877 -0.0157113 0)
(0.843451 -0.019937 0)
(0.847814 -0.0245757 0)
(0.852997 -0.0297796 0)
(0.859032 -0.0357361 0)
(0.86594 -0.0426759 0)
(0.873719 -0.0508785 0)
(0.882323 -0.060673 0)
(0.891629 -0.0724264 0)
(0.901402 -0.0865114 0)
(0.911252 -0.10324 0)
(0.920611 -0.122752 0)
(0.928762 -0.144871 0)
(0.93496 -0.168946 0)
(1.00335 0.0528702 0)
(1.01892 0.144905 0)
(1.04573 0.215619 0)
(1.0745 0.263236 0)
(1.09913 0.290071 0)
(1.11694 0.300132 0)
(1.12715 0.297752 0)
(1.13019 0.286846 0)
(1.12712 0.27059 0)
(1.11929 0.251373 0)
(1.10799 0.230889 0)
(1.09438 0.210276 0)
(1.07942 0.190257 0)
(1.06384 0.171263 0)
(1.04823 0.153517 0)
(1.03299 0.137112 0)
(1.01842 0.122053 0)
(1.0047 0.108295 0)
(0.991956 0.0957608 0)
(0.980257 0.0843598 0)
(0.96963 0.0739945 0)
(0.960074 0.0645672 0)
(0.951571 0.0559831 0)
(0.94409 0.0481515 0)
(0.937594 0.0409874 0)
(0.932042 0.0344108 0)
(0.927391 0.0283466 0)
(0.923601 0.0227239 0)
(0.920635 0.0174754 0)
(0.918458 0.0125363 0)
(0.917041 0.00784294 0)
(0.91636 0.00333191 0)
(0.916398 -0.00106176 0)
(0.917142 -0.0054063 0)
(0.918586 -0.00977532 0)
(0.92073 -0.0142504 0)
(0.92358 -0.0189243 0)
(0.927145 -0.0239044 0)
(0.931437 -0.0293172 0)
(0.936465 -0.0353129 0)
(0.942232 -0.0420697 0)
(0.948724 -0.0497974 0)
(0.955898 -0.0587381 0)
(0.963663 -0.0691597 0)
(0.971859 -0.0813405 0)
(0.980233 -0.0955358 0)
(0.988422 -0.111923 0)
(0.995954 -0.130525 0)
(1.00228 -0.151118 0)
(1.0069 -0.173164 0)
(1.00249 0.0443074 0)
(1.01505 0.124157 0)
(1.03815 0.189091 0)
(1.06495 0.236617 0)
(1.09042 0.26728 0)
(1.11174 0.283264 0)
(1.12753 0.287449 0)
(1.13745 0.282782 0)
(1.14186 0.271905 0)
(1.14156 0.256991 0)
(1.13745 0.239722 0)
(1.13048 0.221338 0)
(1.12148 0.202714 0)
(1.11118 0.18444 0)
(1.10014 0.166892 0)
(1.08884 0.150292 0)
(1.07764 0.134754 0)
(1.06679 0.120319 0)
(1.05648 0.106977 0)
(1.04683 0.0946878 0)
(1.03795 0.0833921 0)
(1.02986 0.0730194 0)
(1.0226 0.063494 0)
(1.01616 0.0547384 0)
(1.01056 0.0466756 0)
(1.00576 0.0392303 0)
(1.00175 0.0323292 0)
(0.9985 0.0259012 0)
(0.995994 0.0198772 0)
(0.994206 0.0141894 0)
(0.993116 0.00877034 0)
(0.992707 0.00355226 0)
(0.992965 -0.00153462 0)
(0.993879 -0.00656343 0)
(0.995444 -0.0116125 0)
(0.997655 -0.0167677 0)
(1.00051 -0.0221248 0)
(1.00401 -0.0277922 0)
(1.00816 -0.0338943 0)
(1.01294 -0.0405741 0)
(1.01834 -0.0479952 0)
(1.02431 -0.0563426 0)
(1.03079 -0.0658192 0)
(1.03765 -0.0766379 0)
(1.04473 -0.0890038 0)
(1.05179 -0.103086 0)
(1.05849 -0.118974 0)
(1.06446 -0.136629 0)
(1.06928 -0.155827 0)
(1.0726 -0.176133 0)
(1.00193 0.0374795 0)
(1.01223 0.106746 0)
(1.03212 0.165479 0)
(1.05656 0.211133 0)
(1.08152 0.243325 0)
(1.10441 0.263053 0)
(1.1236 0.272101 0)
(1.13833 0.272565 0)
(1.14845 0.266518 0)
(1.15429 0.255808 0)
(1.1564 0.241981 0)
(1.15545 0.22626 0)
(1.15211 0.209576 0)
(1.14698 0.192613 0)
(1.14063 0.175852 0)
(1.13351 0.159616 0)
(1.12599 0.144112 0)
(1.11837 0.129459 0)
(1.11087 0.115715 0)
(1.10368 0.102892 0)
(1.09691 0.0909719 0)
(1.09065 0.0799172 0)
(1.08497 0.0696764 0)
(1.07991 0.0601901 0)
(1.07548 0.0513941 0)
(1.07169 0.0432219 0)
(1.06855 0.0356057 0)
(1.06604 0.0284776 0)
(1.06417 0.0217699 0)
(1.06292 0.0154142 0)
(1.06228 0.00934217 0)
(1.06224 0.00348377 0)
(1.06279 -0.00223313 0)
(1.06392 -0.00788413 0)
(1.06564 -0.0135498 0)
(1.06792 -0.0193174 0)
(1.07077 -0.0252827 0)
(1.07419 -0.0315518 0)
(1.07814 -0.0382435 0)
(1.08263 -0.0454902 0)
(1.0876 -0.0534383 0)
(1.093 -0.0622469 0)
(1.09875 -0.0720831 0)
(1.10472 -0.0831124 0)
(1.11074 -0.0954829 0)
(1.11658 -0.109302 0)
(1.12198 -0.124606 0)
(1.12661 -0.141326 0)
(1.13017 -0.159257 0)
(1.13238 -0.178047 0)
(1.00154 0.031903 0)
(1.01014 0.0919924 0)
(1.02733 0.144581 0)
(1.04939 0.18734 0)
(1.07314 0.219452 0)
(1.09635 0.241189 0)
(1.1174 0.253557 0)
(1.13529 0.257968 0)
(1.14958 0.25597 0)
(1.16022 0.24906 0)
(1.16747 0.238576 0)
(1.17173 0.225649 0)
(1.17349 0.211192 0)
(1.17322 0.19592 0)
(1.1714 0.180372 0)
(1.16844 0.16494 0)
(1.1647 0.1499 0)
(1.16047 0.135438 0)
(1.15601 0.121668 0)
(1.15151 0.108653 0)
(1.14712 0.0964163 0)
(1.14296 0.084953 0)
(1.13912 0.0742388 0)
(1.13567 0.0642352 0)
(1.13264 0.0548939 0)
(1.13008 0.0461604 0)
(1.128 0.0379754 0)
(1.12641 0.0302771 0)
(1.12532 0.0230014 0)
(1.12474 0.0160825 0)
(1.12465 0.00945293 0)
(1.12507 0.003043 0)
(1.12598 -0.00321955 0)
(1.12739 -0.00941053 0)
(1.12928 -0.0156104 0)
(1.13166 -0.0219052 0)
(1.13451 -0.0283882 0)
(1.13783 -0.0351609 0)
(1.14158 -0.0423339 0)
(1.14574 -0.0500271 0)
(1.15027 -0.0583694 0)
(1.15509 -0.0674952 0)
(1.16013 -0.07754 0)
(1.16524 -0.0886305 0)
(1.17027 -0.100872 0)
(1.17503 -0.11433 0)
(1.17927 -0.129007 0)
(1.18276 -0.144825 0)
(1.18524 -0.161601 0)
(1.18651 -0.179054 0)
(1.00126 0.0272579 0)
(1.00854 0.0793606 0)
(1.0235 0.126087 0)
(1.04334 0.165413 0)
(1.06559 0.196363 0)
(1.08837 0.218791 0)
(1.1102 0.233177 0)
(1.13002 0.240415 0)
(1.14718 0.241612 0)
(1.16144 0.237931 0)
(1.17278 0.23048 0)
(1.1814 0.220252 0)
(1.18759 0.208094 0)
(1.1917 0.194705 0)
(1.19408 0.180639 0)
(1.19509 0.166325 0)
(1.19504 0.152084 0)
(1.19421 0.13815 0)
(1.19285 0.124682 0)
(1.19115 0.111785 0)
(1.18929 0.0995203 0)
(1.18739 0.0879146 0)
(1.18556 0.07697 0)
(1.18389 0.0666694 0)
(1.18244 0.056982 0)
(1.18126 0.0478667 0)
(1.18038 0.0392752 0)
(1.17985 0.0311535 0)
(1.17967 0.0234435 0)
(1.17985 0.0160837 0)
(1.18042 0.00900971 0)
(1.18137 0.00215433 0)
(1.18271 -0.00455288 0)
(1.18443 -0.0111859 0)
(1.18655 -0.0178229 0)
(1.18904 -0.0245469 0)
(1.19191 -0.0314467 0)
(1.19513 -0.038617 0)
(1.19868 -0.0461591 0)
(1.20252 -0.0541801 0)
(1.20661 -0.0627911 0)
(1.21088 -0.0721049 0)
(1.21523 -0.0822298 0)
(1.21954 -0.0932621 0)
(1.22368 -0.105275 0)
(1.22746 -0.118306 0)
(1.2307 -0.132339 0)
(1.23319 -0.147293 0)
(1.23475 -0.163014 0)
(1.23521 -0.17927 0)
(1.00105 0.0233242 0)
(1.0073 0.0684336 0)
(1.02042 0.109674 0)
(1.03827 0.145329 0)
(1.05893 0.174417 0)
(1.08087 0.196566 0)
(1.10278 0.21192 0)
(1.12361 0.220999 0)
(1.14267 0.224561 0)
(1.15953 0.223474 0)
(1.17403 0.218624 0)
(1.18618 0.210851 0)
(1.1961 0.200905 0)
(1.20401 0.189436 0)
(1.21016 0.176984 0)
(1.21483 0.163983 0)
(1.21827 0.150777 0)
(1.22072 0.137629 0)
(1.2224 0.12473 0)
(1.2235 0.112219 0)
(1.2242 0.100185 0)
(1.22462 0.0886831 0)
(1.22489 0.0777397 0)
(1.2251 0.0673582 0)
(1.22532 0.0575247 0)
(1.22563 0.0482125 0)
(1.22607 0.0393844 0)
(1.22668 0.0309959 0)
(1.22749 0.0229963 0)
(1.22853 0.0153299 0)
(1.22981 0.00793708 0)
(1.23136 0.000754654 0)
(1.23317 -0.00628425 0)
(1.23526 -0.0132501 0)
(1.23762 -0.0202171 0)
(1.24026 -0.0272637 0)
(1.24315 -0.0344726 0)
(1.24629 -0.0419309 0)
(1.24965 -0.0497297 0)
(1.2532 -0.0579632 0)
(1.25688 -0.0667266 0)
(1.26062 -0.0761131 0)
(1.26434 -0.0862089 0)
(1.26792 -0.0970864 0)
(1.27125 -0.108796 0)
(1.27418 -0.121355 0)
(1.27653 -0.134738 0)
(1.27816 -0.14887 0)
(1.27891 -0.163615 0)
(1.27865 -0.178789 0)
(1.00089 0.0199444 0)
(1.00633 0.0588862 0)
(1.01792 0.0950377 0)
(1.03402 0.126968 0)
(1.05314 0.153756 0)
(1.07404 0.174934 0)
(1.09558 0.190438 0)
(1.1168 0.200529 0)
(1.137 0.205699 0)
(1.15567 0.206576 0)
(1.17252 0.203846 0)
(1.18743 0.198195 0)
(1.20041 0.190267 0)
(1.21155 0.180642 0)
(1.221 0.169821 0)
(1.22894 0.158226 0)
(1.23556 0.146201 0)
(1.24107 0.134021 0)
(1.24564 0.121896 0)
(1.24945 0.109986 0)
(1.25266 0.0984036 0)
(1.25539 0.0872245 0)
(1.25776 0.0764947 0)
(1.25988 0.0662354 0)
(1.26182 0.0564487 0)
(1.26366 0.0471212 0)
(1.26547 0.0382272 0)
(1.26728 0.0297318 0)
(1.26913 0.0215923 0)
(1.27107 0.01376 0)
(1.27312 0.00618108 0)
(1.2753 -0.0012025 0)
(1.27762 -0.00845272 0)
(1.2801 -0.0156352 0)
(1.28273 -0.022819 0)
(1.28553 -0.0300768 0)
(1.28847 -0.0374843 0)
(1.29155 -0.0451202 0)
(1.29474 -0.0530655 0)
(1.29801 -0.0614019 0)
(1.30131 -0.0702102 0)
(1.30456 -0.0795669 0)
(1.30771 -0.0895399 0)
(1.31064 -0.100183 0)
(1.31325 -0.11153 0)
(1.31541 -0.123587 0)
(1.31699 -0.136322 0)
(1.31786 -0.149666 0)
(1.3179 -0.163505 0)
(1.31701 -0.177686 0)
(1.00077 0.0170029 0)
(1.00555 0.0504617 0)
(1.01588 0.0819098 0)
(1.03048 0.110163 0)
(1.04816 0.134398 0)
(1.06794 0.154121 0)
(1.08886 0.169152 0)
(1.11006 0.179579 0)
(1.13085 0.185702 0)
(1.15069 0.187958 0)
(1.16924 0.186862 0)
(1.18628 0.182962 0)
(1.2017 0.176793 0)
(1.2155 0.168857 0)
(1.22775 0.159603 0)
(1.23854 0.149423 0)
(1.24801 0.138648 0)
(1.25629 0.127549 0)
(1.26354 0.116345 0)
(1.26989 0.105203 0)
(1.27548 0.0942513 0)
(1.28043 0.0835804 0)
(1.28485 0.0732509 0)
(1.28884 0.0632983 0)
(1.29248 0.0537379 0)
(1.29586 0.0445678 0)
(1.29903 0.0357732 0)
(1.30205 0.0273282 0)
(1.30497 0.0191984 0)
(1.30783 0.011342 0)
(1.31066 0.00371202 0)
(1.31348 -0.00374388 0)
(1.31633 -0.0110819 0)
(1.31921 -0.0183619 0)
(1.32213 -0.0256471 0)
(1.3251 -0.0330033 0)
(1.3281 -0.0404989 0)
(1.33114 -0.048204 0)
(1.33418 -0.0561895 0)
(1.3372 -0.0645258 0)
(1.34014 -0.0732804 0)
(1.34296 -0.0825158 0)
(1.34558 -0.0922852 0)
(1.34792 -0.102628 0)
(1.34989 -0.113567 0)
(1.35137 -0.125097 0)
(1.35227 -0.137188 0)
(1.35247 -0.149776 0)
(1.35188 -0.162765 0)
(1.35042 -0.176026 0)
(1.00067 0.0144115 0)
(1.00492 0.0429554 0)
(1.01421 0.0700545 0)
(1.02752 0.0947366 0)
(1.04391 0.116285 0)
(1.06259 0.134224 0)
(1.08277 0.148316 0)
(1.10367 0.158544 0)
(1.12467 0.165069 0)
(1.14522 0.168183 0)
(1.16494 0.168266 0)
(1.18356 0.16574 0)
(1.20089 0.161042 0)
(1.21685 0.154593 0)
(1.23143 0.146786 0)
(1.24465 0.137971 0)
(1.25659 0.128453 0)
(1.26733 0.118492 0)
(1.27698 0.1083 0)
(1.28565 0.0980466 0)
(1.29345 0.0878653 0)
(1.30047 0.0778547 0)
(1.30683 0.0680848 0)
(1.3126 0.0586012 0)
(1.31788 0.049429 0)
(1.32273 0.0405759 0)
(1.32723 0.0320359 0)
(1.33144 0.0237915 0)
(1.3354 0.0158158 0)
(1.33916 0.0080742 0)
(1.34275 0.000526096 0)
(1.34622 -0.00687441 0)
(1.34959 -0.0141774 0)
(1.35287 -0.0214366 0)
(1.35607 -0.0287085 0)
(1.35922 -0.0360522 0)
(1.36229 -0.0435282 0)
(1.36529 -0.051198 0)
(1.3682 -0.0591231 0)
(1.37098 -0.0673632 0)
(1.37361 -0.0759744 0)
(1.37603 -0.0850071 0)
(1.37817 -0.0945026 0)
(1.37998 -0.10449 0)
(1.38137 -0.11498 0)
(1.38225 -0.125967 0)
(1.38254 -0.137418 0)
(1.38214 -0.149277 0)
(1.38099 -0.16146 0)
(1.37902 -0.173861 0)
(1.0006 0.0121017 0)
(1.00441 0.0362009 0)
(1.01285 0.0592679 0)
(1.02506 0.08051 0)
(1.04031 0.0993176 0)
(1.05797 0.115255 0)
(1.07736 0.128069 0)
(1.09782 0.137679 0)
(1.11877 0.144154 0)
(1.13969 0.147681 0)
(1.16019 0.14853 0)
(1.17994 0.147023 0)
(1.19872 0.143504 0)
(1.21639 0.13832 0)
(1.23286 0.131805 0)
(1.24811 0.124263 0)
(1.26215 0.115968 0)
(1.27503 0.107155 0)
(1.28679 0.0980243 0)
(1.29752 0.0887398 0)
(1.30731 0.0794321 0)
(1.31622 0.0702019 0)
(1.32435 0.0611233 0)
(1.33177 0.0522475 0)
(1.33857 0.0436057 0)
(1.34481 0.0352128 0)
(1.35056 0.0270695 0)
(1.35588 0.0191652 0)
(1.36082 0.0114796 0)
(1.36544 0.00398464 0)
(1.36976 -0.00335406 0)
(1.37384 -0.0105761 0)
(1.3777 -0.0177254 0)
(1.38136 -0.0248492 0)
(1.38483 -0.0319974 0)
(1.38814 -0.0392217 0)
(1.39128 -0.0465753 0)
(1.39424 -0.0541112 0)
(1.39702 -0.061882 0)
(1.39959 -0.0699376 0)
(1.40192 -0.0783242 0)
(1.40397 -0.0870819 0)
(1.40569 -0.0962421 0)
(1.40701 -0.105825 0)
(1.40788 -0.115836 0)
(1.40822 -0.126265 0)
(1.40796 -0.13708 0)
(1.40703 -0.148231 0)
(1.40537 -0.159646 0)
(1.40294 -0.171236 0)
(1.00054 0.0100188 0)
(1.00401 0.0300611 0)
(1.01173 0.0493723 0)
(1.02303 0.0673124 0)
(1.0373 0.0833729 0)
(1.05403 0.0971713 0)
(1.07265 0.108462 0)
(1.0926 0.117133 0)
(1.11335 0.123197 0)
(1.13441 0.126765 0)
(1.15538 0.128023 0)
(1.17592 0.12721 0)
(1.19578 0.124594 0)
(1.21477 0.120453 0)
(1.23275 0.115062 0)
(1.24966 0.108679 0)
(1.26545 0.101541 0)
(1.28012 0.0938555 0)
(1.29369 0.0858034 0)
(1.30621 0.0775352 0)
(1.31773 0.0691736 0)
(1.32831 0.0608153 0)
(1.33801 0.0525337 0)
(1.34692 0.0443812 0)
(1.35508 0.036392 0)
(1.36258 0.0285848 0)
(1.36946 0.0209651 0)
(1.3758 0.0135273 0)
(1.38164 0.00625651 0)
(1.38704 -0.000869706 0)
(1.39203 -0.00788003 0)
(1.39666 -0.0148082 0)
(1.40096 -0.021692 0)
(1.40496 -0.0285724 0)
(1.40868 -0.0354927 0)
(1.41212 -0.0424976 0)
(1.41531 -0.0496328 0)
(1.41823 -0.0569435 0)
(1.42088 -0.0644737 0)
(1.42324 -0.0722648 0)
(1.42529 -0.0803542 0)
(1.42699 -0.088773 0)
(1.42831 -0.0975448 0)
(1.42919 -0.106683 0)
(1.42959 -0.116187 0)
(1.42943 -0.126046 0)
(1.42867 -0.136229 0)
(1.42726 -0.14669 0)
(1.42514 -0.157368 0)
(1.42228 -0.168186 0)
(1.00049 0.0081181 0)
(1.00368 0.0244206 0)
(1.01084 0.040212 0)
(1.02138 0.0549831 0)
(1.03481 0.0683189 0)
(1.05073 0.079895 0)
(1.06865 0.0894887 0)
(1.08808 0.0969812 0)
(1.10854 0.10235 0)
(1.12958 0.105654 0)
(1.15081 0.10702 0)
(1.17188 0.10662 0)
(1.19252 0.104657 0)
(1.2125 0.101349 0)
(1.23166 0.0969164 0)
(1.24988 0.0915707 0)
(1.26708 0.0855098 0)
(1.28323 0.0789115 0)
(1.29831 0.0719316 0)
(1.31233 0.0647028 0)
(1.32532 0.057335 0)
(1.33733 0.0499162 0)
(1.34839 0.0425144 0)
(1.35857 0.0351795 0)
(1.36793 0.0279452 0)
(1.37652 0.0208313 0)
(1.38439 0.0138458 0)
(1.39162 0.00698631 0)
(1.39824 0.000241901 0)
(1.40432 -0.00640533 0)
(1.40989 -0.0129791 0)
(1.415 -0.0195079 0)
(1.41967 -0.0260237 0)
(1.42395 -0.0325615 0)
(1.42786 -0.0391583 0)
(1.4314 -0.045852 0)
(1.4346 -0.0526813 0)
(1.43746 -0.0596839 0)
(1.43997 -0.0668961 0)
(1.44212 -0.0743515 0)
(1.4439 -0.0820795 0)
(1.44527 -0.090104 0)
(1.44621 -0.0984415 0)
(1.44668 -0.1071 0)
(1.44663 -0.116076 0)
(1.44602 -0.125354 0)
(1.44481 -0.134908 0)
(1.44295 -0.144695 0)
(1.4404 -0.154662 0)
(1.43714 -0.164742 0)
(1.00045 0.0063622 0)
(1.00342 0.0191808 0)
(1.01012 0.0316494 0)
(1.02005 0.0433718 0)
(1.0328 0.054019 0)
(1.04803 0.0633267 0)
(1.06534 0.0711045 0)
(1.08428 0.07724 0)
(1.10443 0.0816949 0)
(1.12537 0.0844961 0)
(1.14671 0.0857244 0)
(1.16811 0.0855013 0)
(1.18929 0.0839762 0)
(1.20999 0.0813141 0)
(1.23003 0.0776858 0)
(1.24926 0.0732589 0)
(1.26757 0.0681922 0)
(1.28489 0.0626308 0)
(1.30118 0.0567033 0)
(1.31642 0.0505207 0)
(1.33061 0.0441762 0)
(1.34379 0.0377452 0)
(1.35597 0.0312867 0)
(1.36721 0.0248446 0)
(1.37756 0.0184492 0)
(1.38705 0.012119 0)
(1.39575 0.00586189 0)
(1.40371 -0.000322896 0)
(1.41098 -0.00644369 0)
(1.41761 -0.012515 0)
(1.42365 -0.0185566 0)
(1.42913 -0.024592 0)
(1.4341 -0.0306485 0)
(1.43858 -0.0367551 0)
(1.44261 -0.042943 0)
(1.44621 -0.0492438 0)
(1.44938 -0.0556894 0)
(1.45214 -0.0623106 0)
(1.45449 -0.0691368 0)
(1.45642 -0.0761944 0)
(1.45792 -0.0835058 0)
(1.45897 -0.0910885 0)
(1.45954 -0.0989532 0)
(1.45962 -0.107103 0)
(1.45915 -0.115532 0)
(1.45812 -0.124224 0)
(1.45648 -0.133152 0)
(1.4542 -0.142279 0)
(1.45125 -0.151557 0)
(1.44761 -0.160928 0)
(1.00042 0.00471911 0)
(1.00323 0.0142555 0)
(1.00957 0.0235604 0)
(1.01902 0.0323373 0)
(1.03123 0.0403367 0)
(1.0459 0.0473536 0)
(1.06269 0.0532355 0)
(1.08121 0.0578864 0)
(1.10106 0.0612646 0)
(1.12185 0.0633779 0)
(1.14321 0.0642757 0)
(1.16481 0.0640399 0)
(1.18634 0.0627756 0)
(1.20755 0.0606024 0)
(1.22823 0.0576462 0)
(1.2482 0.0540329 0)
(1.26733 0.049883 0)
(1.28554 0.0453078 0)
(1.30274 0.0404074 0)
(1.31892 0.0352685 0)
(1.33404 0.0299645 0)
(1.34812 0.0245554 0)
(1.36118 0.0190881 0)
(1.37324 0.0135978 0)
(1.38435 0.00810893 0)
(1.39455 0.00263608 0)
(1.40388 -0.00281444 0)
(1.4124 -0.00824358 0)
(1.42016 -0.0136584 0)
(1.4272 -0.0190713 0)
(1.43358 -0.0244985 0)
(1.43932 -0.02996 0)
(1.44448 -0.035478 0)
(1.44908 -0.0410769 0)
(1.45316 -0.046782 0)
(1.45674 -0.0526192 0)
(1.45983 -0.0586141 0)
(1.46245 -0.0647912 0)
(1.4646 -0.0711734 0)
(1.46629 -0.0777807 0)
(1.4675 -0.0846293 0)
(1.46822 -0.091731 0)
(1.46844 -0.0990917 0)
(1.46813 -0.10671 0)
(1.46727 -0.114579 0)
(1.46583 -0.12268 0)
(1.46378 -0.130987 0)
(1.46111 -0.139467 0)
(1.45778 -0.148076 0)
(1.45379 -0.156764 0)
(1.0004 0.00316074 0)
(1.00308 0.00956788 0)
(1.00917 0.0158322 0)
(1.01826 0.0217471 0)
(1.03006 0.0271368 0)
(1.04431 0.031855 0)
(1.0607 0.03579 0)
(1.07888 0.0388683 0)
(1.09847 0.0410536 0)
(1.11911 0.0423442 0)
(1.14044 0.0427676 0)
(1.16213 0.0423752 0)
(1.18387 0.0412353 0)
(1.20541 0.0394279 0)
(1.2265 0.0370382 0)
(1.24698 0.0341526 0)
(1.26668 0.0308546 0)
(1.2855 0.0272219 0)
(1.30335 0.0233244 0)
(1.32019 0.0192233 0)
(1.33597 0.0149701 0)
(1.35069 0.010607 0)
(1.36436 0.00616683 0)
(1.377 0.00167384 0)
(1.38864 -0.00285567 0)
(1.39932 -0.0074125 0)
(1.40909 -0.0119937 0)
(1.41798 -0.0166016 0)
(1.42605 -0.0212435 0)
(1.43335 -0.02593 0)
(1.43992 -0.0306753 0)
(1.4458 -0.0354959 0)
(1.45103 -0.0404101 0)
(1.45565 -0.0454376 0)
(1.45969 -0.0505986 0)
(1.46317 -0.0559136 0)
(1.46612 -0.0614024 0)
(1.46855 -0.0670838 0)
(1.47047 -0.0729746 0)
(1.47188 -0.079089 0)
(1.47278 -0.0854378 0)
(1.47316 -0.0920278 0)
(1.47302 -0.0988604 0)
(1.47233 -0.105931 0)
(1.47107 -0.11323 0)
(1.46924 -0.120739 0)
(1.46681 -0.128432 0)
(1.46375 -0.136279 0)
(1.46007 -0.144238 0)
(1.45574 -0.152266 0)
(1.00039 0.00166173 0)
(1.00299 0.00504761 0)
(1.0089 0.00835969 0)
(1.01776 0.0114745 0)
(1.02928 0.0142862 0)
(1.04324 0.0167058 0)
(1.05935 0.0186641 0)
(1.07728 0.0201139 0)
(1.09668 0.0210301 0)
(1.11719 0.0214074 0)
(1.13846 0.0212586 0)
(1.16017 0.0206102 0)
(1.18201 0.0194996 0)
(1.20372 0.0179711 0)
(1.22505 0.0160728 0)
(1.24582 0.0138535 0)
(1.26585 0.0113605 0)
(1.28504 0.00863806 0)
(1.30327 0.00572573 0)
(1.32049 0.00265782 0)
(1.33665 -0.000537085 0)
(1.35175 -0.0038362 0)
(1.36577 -0.00722239 0)
(1.37873 -0.0106839 0)
(1.39067 -0.0142139 0)
(1.40161 -0.01781 0)
(1.41159 -0.0214738 0)
(1.42066 -0.0252101 0)
(1.42886 -0.029027 0)
(1.43624 -0.0329346 0)
(1.44285 -0.0369453 0)
(1.44873 -0.0410728 0)
(1.45391 -0.0453318 0)
(1.45844 -0.049738 0)
(1.46234 -0.0543068 0)
(1.46565 -0.0590537 0)
(1.46839 -0.0639932 0)
(1.47057 -0.0691387 0)
(1.47221 -0.0745015 0)
(1.4733 -0.0800908 0)
(1.47387 -0.0859122 0)
(1.47389 -0.0919681 0)
(1.47338 -0.0982561 0)
(1.4723 -0.104769 0)
(1.47067 -0.111494 0)
(1.46845 -0.118413 0)
(1.46564 -0.125501 0)
(1.46222 -0.132727 0)
(1.45818 -0.140057 0)
(1.45352 -0.147448 0)
(1.00038 0.000198606 0)
(1.00294 0.000628937 0)
(1.00876 0.0010434 0)
(1.01749 0.00139761 0)
(1.02887 0.00165342 0)
(1.04267 0.00177824 0)
(1.05862 0.00174617 0)
(1.07641 0.00153862 0)
(1.09568 0.00114429 0)
(1.1161 0.000558584 0)
(1.13731 -0.000217289 0)
(1.159 -0.00117745 0)
(1.18085 -0.00231258 0)
(1.2026 -0.00361114 0)
(1.224 -0.00506051 0)
(1.24485 -0.00664795 0)
(1.265 -0.00836141 0)
(1.2843 -0.0101902 0)
(1.30265 -0.0121252 0)
(1.32 -0.0141596 0)
(1.33628 -0.0162884 0)
(1.35148 -0.0185092 0)
(1.36559 -0.0208214 0)
(1.37862 -0.0232267 0)
(1.39061 -0.0257285 0)
(1.40157 -0.0283322 0)
(1.41155 -0.0310445 0)
(1.42059 -0.0338736 0)
(1.42873 -0.0368287 0)
(1.43603 -0.03992 0)
(1.44251 -0.0431585 0)
(1.44824 -0.0465555 0)
(1.45325 -0.0501228 0)
(1.45757 -0.0538718 0)
(1.46124 -0.0578139 0)
(1.46428 -0.0619599 0)
(1.46673 -0.0663194 0)
(1.4686 -0.0709007 0)
(1.46991 -0.0757103 0)
(1.47065 -0.0807523 0)
(1.47085 -0.0860283 0)
(1.4705 -0.0915362 0)
(1.4696 -0.0972704 0)
(1.46814 -0.103221 0)
(1.46611 -0.109373 0)
(1.46351 -0.115709 0)
(1.46033 -0.122202 0)
(1.45655 -0.128825 0)
(1.45218 -0.135544 0)
(1.44721 -0.142322 0)
(1.00038 -0.00125108 0)
(1.00293 -0.00375128 0)
(1.00874 -0.00621296 0)
(1.01746 -0.00860267 0)
(1.02882 -0.0108917 0)
(1.04259 -0.0130564 0)
(1.05852 -0.0150792 0)
(1.07627 -0.0169494 0)
(1.0955 -0.0186633 0)
(1.11586 -0.0202239 0)
(1.13702 -0.02164 0)
(1.15864 -0.0229254 0)
(1.18042 -0.0240976 0)
(1.20208 -0.025177 0)
(1.2234 -0.0261857 0)
(1.24416 -0.0271466 0)
(1.26419 -0.0280828 0)
(1.28337 -0.0290169 0)
(1.3016 -0.0299705 0)
(1.3188 -0.0309642 0)
(1.33494 -0.0320171 0)
(1.34997 -0.0331471 0)
(1.36391 -0.0343708 0)
(1.37677 -0.0357034 0)
(1.38855 -0.0371592 0)
(1.3993 -0.0387512 0)
(1.40906 -0.0404917 0)
(1.41786 -0.0423924 0)
(1.42575 -0.044464 0)
(1.43278 -0.0467169 0)
(1.43899 -0.049161 0)
(1.44442 -0.0518054 0)
(1.44911 -0.0546588 0)
(1.45311 -0.0577293 0)
(1.45644 -0.0610242 0)
(1.45914 -0.0645497 0)
(1.46122 -0.068311 0)
(1.46272 -0.0723117 0)
(1.46364 -0.0765538 0)
(1.46399 -0.081037 0)
(1.46379 -0.0857587 0)
(1.46304 -0.0907132 0)
(1.46173 -0.0958919 0)
(1.45988 -0.101282 0)
(1.45746 -0.106869 0)