/*--------------------------------*- C++ -*----------------------------------*\
| =========                 |                                                 |
| \\      /  F ield         | OpenFOAM: The Open Source CFD Toolbox           |
|  \\    /   O peration     | Version:  2306                                  |
|   \\  /    A nd           | Website:  www.openfoam.com                      |
|    \\/     M anipulation  |                                                 |
\*---------------------------------------------------------------------------*/
FoamFile
{
    version     2.0;
    format      ascii;
    arch        "LSB;label=32;scalar=64";
    class       volScalarField;
    location    "9.8";
    object      p;
}
// * * * * * * * * * * * * * * * * * * * * * * * * * * * * * * * * * * * * * //

dimensions      [0 2 -2 0 0 0 0];

internalField   nonuniform List<scalar> 
1900
(
0.0528908
0.0286738
0.00828589
-0.00704815
-0.0180596
-0.0286012
-0.0390246
-0.0511629
-0.0636836
-0.0776911
0.0236296
0.0154324
0.00412042
-0.00742659
-0.0184427
-0.0286195
-0.039037
-0.0495311
-0.0610045
-0.0720378
0.0145314
0.0100421
0.00252948
-0.00683424
-0.0169119
-0.0268835
-0.036654
-0.0461965
-0.0556119
-0.0646816
0.00882474
0.00575219
0.000104219
-0.00754132
-0.016389
-0.0256246
-0.03481
-0.0437176
-0.0523034
-0.0604582
0.00659375
0.00405861
-0.000679593
-0.00732704
-0.015305
-0.0239074
-0.0325812
-0.0410041
-0.0490286
-0.0565662
0.00722111
0.00473992
0.000128336
-0.00633803
-0.0140784
-0.0223847
-0.0306985
-0.0387034
-0.0462758
-0.0533873
0.0106701
0.00772316
0.00244005
-0.0046461
-0.0127107
-0.0210035
-0.0290594
-0.0367013
-0.0439217
-0.050756
0.0173637
0.0130668
0.00616617
-0.00230719
-0.0111335
-0.0195665
-0.0274109
-0.0347608
-0.0417663
-0.0484902
0.0274997
0.0193989
0.00895936
-0.00150715
-0.010822
-0.0189441
-0.0263263
-0.0333919
-0.0403051
-0.0470263
0.0563479
0.0336735
0.0139625
-0.000106443
-0.00977244
-0.017479
-0.0247228
-0.0319595
-0.0391396
-0.0460583
-0.100815
-0.100849
-0.100894
-0.100948
-0.101008
-0.101074
-0.101145
-0.10122
-0.101298
-0.101377
-0.101455
-0.10153
-0.101602
-0.101667
-0.101723
-0.10177
-0.101806
-0.101828
-0.101835
-0.101826
-0.101799
-0.101754
-0.101689
-0.101603
-0.101495
-0.101366
-0.101213
-0.101037
-0.100838
-0.100614
-0.100365
-0.100091
-0.09979
-0.0994625
-0.0991069
-0.0987218
-0.0983054
-0.0978556
-0.0973693
-0.0968427
-0.0962706
-0.0956463
-0.0949612
-0.0942039
-0.0933603
-0.0924124
-0.0913387
-0.0901142
-0.088711
-0.087098
-0.0852416
-0.0831055
-0.0806511
-0.0778379
-0.0746221
-0.0709603
-0.0668179
-0.0621732
-0.0570063
-0.0513215
-0.045155
-0.0385532
-0.0315842
-0.0243406
-0.0169315
-0.00948086
-0.00211685
0.00503116
0.0118321
0.0181768
0.0239481
0.0290776
0.0334778
0.037129
0.0399731
0.0420339
0.043288
0.0437893
0.0435332
0.0426001
0.0409884
0.0387948
0.0360065
0.0327305
0.0289247
0.0247106
0.0199864
0.014918
0.00927404
0.00337872
-0.10081
-0.100842
-0.100869
-0.10091
-0.100961
-0.101021
-0.101086
-0.101157
-0.101231
-0.101307
-0.101382
-0.101455
-0.101525
-0.101588
-0.101644
-0.10169
-0.101725
-0.101747
-0.101754
-0.101746
-0.101719
-0.101674
-0.101609
-0.101524
-0.101417
-0.101287
-0.101134
-0.100957
-0.100757
-0.100531
-0.10028
-0.100003
-0.099699
-0.0993672
-0.0990064
-0.0986152
-0.0981917
-0.0977335
-0.0972377
-0.0967004
-0.0961165
-0.0954798
-0.0947821
-0.0940135
-0.0931614
-0.0922104
-0.0911416
-0.0899327
-0.0885584
-0.0869904
-0.0851958
-0.0831373
-0.0807727
-0.0780566
-0.0749392
-0.0713677
-0.0673005
-0.0627347
-0.0576537
-0.0520553
-0.0459504
-0.039391
-0.0324485
-0.0252186
-0.0178106
-0.0103509
-0.00297339
0.00419331
0.0110049
0.0173731
0.023151
0.0282944
0.0326985
0.0363571
0.0392052
0.0412737
0.04253
0.0430417
0.0427897
0.0418727
0.0402694
0.0381011
0.0353276
0.0320879
0.0283059
0.0241384
0.0194569
0.0144443
0.008922
0.00314889
-0.100693
-0.100775
-0.10082
-0.100873
-0.100929
-0.10099
-0.101058
-0.10113
-0.101207
-0.101285
-0.101364
-0.101441
-0.101514
-0.101581
-0.101641
-0.101691
-0.101729
-0.101755
-0.101765
-0.101759
-0.101735
-0.101693
-0.101629
-0.101545
-0.101439
-0.101309
-0.101157
-0.10098
-0.100778
-0.100552
-0.1003
-0.100022
-0.0997176
-0.0993855
-0.0990248
-0.0986342
-0.0982122
-0.0977565
-0.0972643
-0.096732
-0.0961544
-0.0955251
-0.0948363
-0.0940791
-0.0932427
-0.092314
-0.0912768
-0.0901106
-0.0887912
-0.0872922
-0.0855813
-0.0836174
-0.0813506
-0.0787334
-0.0757246
-0.0722692
-0.0683097
-0.0638004
-0.0587389
-0.0531396
-0.0470276
-0.0404603
-0.0335066
-0.0262617
-0.0188451
-0.0113871
-0.00402562
0.00312869
0.00992146
0.0162645
0.0220176
0.0271312
0.0315054
0.0351322
0.0379499
0.0399915
0.0412256
0.0417226
0.0414658
0.040554
0.0389708
0.0368334
0.0341124
0.0309352
0.0272481
0.0231843
0.0186601
0.0138186
0.00855539
0.00303929
-0.100774
-0.100849
-0.100853
-0.100879
-0.100925
-0.100987
-0.10106
-0.10114
-0.101225
-0.101312
-0.1014
-0.101485
-0.101565
-0.10164
-0.101705
-0.101761
-0.101804
-0.101833
-0.101846
-0.101842
-0.10182
-0.101778
-0.101715
-0.10163
-0.101523
-0.101392
-0.101237
-0.101058
-0.100854
-0.100624
-0.100369
-0.100089
-0.0997814
-0.0994474
-0.0990854
-0.0986943
-0.0982728
-0.0978192
-0.0973309
-0.0968044
-0.0962348
-0.0956155
-0.0949389
-0.0941972
-0.0933818
-0.0924812
-0.0914798
-0.0903582
-0.0890909
-0.0876545
-0.0860167
-0.084134
-0.0819512
-0.0794116
-0.0764509
-0.0730322
-0.0691011
-0.0646269
-0.0595962
-0.0540249
-0.0479389
-0.0414008
-0.0344862
-0.0272942
-0.0199471
-0.012569
-0.00530217
0.00173815
0.0084084
0.0146143
0.0202335
0.0252085
0.0294547
0.0329583
0.0356717
0.0376222
0.0387918
0.0392433
0.038975
0.0380738
0.0365408
0.034476
0.0318723
0.0288344
0.0253392
0.0214923
0.0172515
0.0127251
0.00785299
0.0027525
-0.100452
-0.100657
-0.100747
-0.100851
-0.100949
-0.101042
-0.101135
-0.10123
-0.101327
-0.101424
-0.10152
-0.101613
-0.101699
-0.101778
-0.101848
-0.101905
-0.10195
-0.101979
-0.101993
-0.101988
-0.101963
-0.101919
-0.101853
-0.101764
-0.101653
-0.101517
-0.101358
-0.101174
-0.100965
-0.100731
-0.100472
-0.100188
-0.0998787
-0.0995435
-0.0991814
-0.0987907
-0.0983709
-0.0979206
-0.0974373
-0.0969177
-0.0963568
-0.0957476
-0.095082
-0.0943553
-0.0935599
-0.092683
-0.0917082
-0.0906196
-0.089386
-0.0879753
-0.086351
-0.0844776
-0.0822974
-0.0797602
-0.0768029
-0.0733828
-0.0694491
-0.06498
-0.0599647
-0.0544242
-0.0483922
-0.0419333
-0.035128
-0.0280787
-0.0209037
-0.0137275
-0.00668446
0.000105995
0.00651716
0.0124514
0.0178063
0.0225207
0.0265287
0.0298122
0.0323416
0.0341383
0.0352015
0.035584
0.0353017
0.034427
0.03298
0.031042
0.0286275
0.0258194
0.0226206
0.019113
0.0152852
0.0112203
0.0068941
0.00239858
-0.101282
-0.101305
-0.101204
-0.101159
-0.10117
-0.101227
-0.101315
-0.101416
-0.101518
-0.101619
-0.101717
-0.101809
-0.101893
-0.101969
-0.102034
-0.102086
-0.102125
-0.102148
-0.102155
-0.102143
-0.102112
-0.102061
-0.101988
-0.101893
-0.101775
-0.101634
-0.101469
-0.10128
-0.101066
-0.100828
-0.100566
-0.100279
-0.0999682
-0.0996318
-0.0992689
-0.0988775
-0.0984602
-0.0980143
-0.0975363
-0.0970227
-0.0964687
-0.0958681
-0.0952112
-0.0944872
-0.0936877
-0.0928041
-0.091818
-0.0907105
-0.0894518
-0.0880135
-0.0863545
-0.0844363
-0.0822038
-0.0796093
-0.0765958
-0.0731242
-0.0691552
-0.064674
-0.059677
-0.0541903
-0.0482548
-0.0419397
-0.0353282
-0.0285248
-0.0216424
-0.0148032
-0.00812886
-0.00173564
0.00426767
0.00978763
0.0147418
0.0190719
0.0227314
0.0257025
0.0279741
0.0295644
0.0304893
0.030793
0.0305069
0.0296902
0.0283781
0.026635
0.0244915
0.0220112
0.0192157
0.0161656
0.0128722
0.00939631
0.00574042
0.00197007
-0.0999622
-0.100606
-0.100808
-0.101063
-0.101278
-0.10144
-0.101562
-0.101663
-0.101755
-0.101843
-0.101926
-0.102003
-0.102073
-0.102135
-0.102186
-0.102225
-0.102252
-0.102264
-0.102261
-0.10224
-0.102201
-0.102142
-0.102062
-0.101961
-0.101838
-0.101692
-0.101522
-0.101328
-0.101112
-0.100872
-0.100609
-0.100321
-0.10001
-0.0996738
-0.0993121
-0.0989209
-0.0984966
-0.0980419
-0.0975539
-0.0970278
-0.096457
-0.0958349
-0.0951517
-0.0943989
-0.0935647
-0.092637
-0.0915963
-0.0904223
-0.0890852
-0.0875551
-0.0857919
-0.0837575
-0.0814042
-0.0786895
-0.0755678
-0.0720072
-0.0679811
-0.0634835
-0.058521
-0.0531267
-0.0473481
-0.0412587
-0.0349422
-0.0285019
-0.0220438
-0.015683
-0.00952632
-0.00367875
0.00177117
0.006742
0.011172
0.015012
0.0182348
0.0208275
0.0227954
0.0241557
0.0249375
0.0251779
0.0249189
0.0242072
0.0230877
0.0216089
0.0198118
0.0177417
0.0154326
0.0129254
0.0102465
0.00743493
0.00451114
0.00151619
-0.104667
-0.103288
-0.10266
-0.102226
-0.101999
-0.101909
-0.101897
-0.101921
-0.10196
-0.102006
-0.102055
-0.102104
-0.102151
-0.102193
-0.102229
-0.102256
-0.102273
-0.102277
-0.102266
-0.102237
-0.102191
-0.102127
-0.102043
-0.101939
-0.101814
-0.101668
-0.101497
-0.101301
-0.101078
-0.100832
-0.10056
-0.100262
-0.099938
-0.0995857
-0.0992034
-0.0987889
-0.0983398
-0.0978544
-0.0973287
-0.0967576
-0.0961336
-0.0954491
-0.0946937
-0.0938571
-0.0929256
-0.0918853
-0.090717
-0.0893995
-0.087905
-0.0862042
-0.0842619
-0.0820435
-0.0795104
-0.0766289
-0.0733669
-0.0697043
-0.0656278
-0.0611426
-0.0562658
-0.0510371
-0.0455085
-0.0397537
-0.0338533
-0.0279048
-0.0220032
-0.0162521
-0.0107415
-0.0055607
-0.000775597
0.00354956
0.00737488
0.0106642
0.0134085
0.0156008
0.0172596
0.0184005
0.0190613
0.019271
0.0190773
0.0185143
0.0176322
0.0164637
0.0150563
0.0134375
0.01165
0.0097153
0.00767083
0.00553361
0.00333567
0.00109076
-0.0988344
-0.0999147
-0.10075
-0.101361
-0.101677
-0.101796
-0.101831
-0.101846
-0.101861
-0.101892
-0.101929
-0.101969
-0.102009
-0.102047
-0.102079
-0.102104
-0.10212
-0.102128
-0.102126
-0.102106
-0.102065
-0.102003
-0.101918
-0.10181
-0.101678
-0.10152
-0.101337
-0.101126
-0.100886
-0.100616
-0.100315
-0.0999827
-0.0996165
-0.0992153
-0.0987768
-0.0982982
-0.0977757
-0.0972057
-0.0965834
-0.0959029
-0.0951566
-0.0943358
-0.0934298
-0.0924272
-0.0913143
-0.0900769
-0.0886976
-0.0871569
-0.0854314
-0.0834962
-0.0813236
-0.0788866
-0.0761579
-0.0731143
-0.0697353
-0.0660112
-0.0619418
-0.0575436
-0.0528434
-0.0478861
-0.0427249
-0.0374302
-0.0320749
-0.0267446
-0.0215183
-0.0164816
-0.0117033
-0.00725472
-0.00318306
0.000464727
0.0036693
0.00640755
0.00868509
0.0104993
0.011877
0.0128305
0.0134016
0.0136105
0.0135076
0.013114
0.0124832
0.0116327
0.0106149
0.00944027
0.00815858
0.00677195
0.00532777
0.00382059
0.00229455
0.000734334
-0.121473
-0.106579
-0.104655
-0.103179
-0.102264
-0.101835
-0.10166
-0.101599
-0.101583
-0.101589
-0.101629
-0.101689
-0.101753
-0.101814
-0.10187
-0.101918
-0.101955
-0.101977
-0.101982
-0.101964
-0.101919
-0.101844
-0.10174
-0.101605
-0.101437
-0.101236
-0.101004
-0.100738
-0.100435
-0.100093
-0.0997096
-0.0992835
-0.098813
-0.0982965
-0.0977314
-0.0971146
-0.0964422
-0.09571
-0.0949127
-0.0940444
-0.093098
-0.092065
-0.0909358
-0.0896998
-0.0883445
-0.0868558
-0.085218
-0.0834148
-0.0814286
-0.0792417
-0.0768355
-0.0741926
-0.0712976
-0.068139
-0.0647103
-0.0610139
-0.0570602
-0.0528722
-0.0484807
-0.0439292
-0.0392663
-0.0345523
-0.0298478
-0.0252224
-0.0207374
-0.0164591
-0.012437
-0.00872399
-0.00535112
-0.00235115
0.000271256
0.00250321
0.00435924
0.00583889
0.00697258
0.0077691
0.00827173
0.008493
0.00848407
0.00825534
0.00786227
0.00730856
0.00665154
0.00588434
0.00506501
0.00417369
0.00326999
0.00232071
0.00138829
0.000421431
-0.0890914
-0.0955232
-0.0980295
-0.0988791
-0.0993346
-0.0997443
-0.100124
-0.100444
-0.100722
-0.100963
-0.101171
-0.101349
-0.101502
-0.101632
-0.101743
-0.101832
-0.101898
-0.101936
-0.10194
-0.101907
-0.101834
-0.101717
-0.101556
-0.10135
-0.101098
-0.100801
-0.100459
-0.100071
-0.0996349
-0.0991492
-0.0986124
-0.0980227
-0.097378
-0.0966756
-0.0959129
-0.0950869
-0.0941942
-0.0932309
-0.0921922
-0.0910728
-0.0898663
-0.0885657
-0.0871631
-0.0856499
-0.0840164
-0.0822526
-0.0803478
-0.0782917
-0.0760737
-0.0736838
-0.0711122
-0.068351
-0.065394
-0.0622395
-0.0588898
-0.0553539
-0.0516468
-0.0477918
-0.0438182
-0.0397634
-0.0356686
-0.0315817
-0.0275514
-0.0236313
-0.0198687
-0.0163127
-0.0129996
-0.00996616
-0.00723044
-0.00481167
-0.00270716
-0.00092168
0.000562856
0.00174948
0.00266859
0.00332872
0.00377165
0.00400669
0.00408313
0.00400481
0.00382612
0.00354034
0.00320671
0.00280308
0.00239464
0.00193823
0.00150754
0.00103316
0.000602957
0.000115811
-0.0832592
-0.0910262
-0.0950012
-0.0964229
-0.0968598
-0.0972042
-0.0977124
-0.0983408
-0.0989761
-0.0995451
-0.100023
-0.100417
-0.100744
-0.101021
-0.101254
-0.101444
-0.101587
-0.101678
-0.101711
-0.101681
-0.101585
-0.101421
-0.10119
-0.10089
-0.100525
-0.100094
-0.0996001
-0.0990435
-0.0984249
-0.0977443
-0.0970015
-0.0961959
-0.0953263
-0.0943913
-0.0933891
-0.0923176
-0.0911741
-0.0899556
-0.0886584
-0.0872781
-0.0858102
-0.0842494
-0.0825904
-0.0808273
-0.0789543
-0.0769656
-0.0748555
-0.0726189
-0.0702509
-0.0677473
-0.0651048
-0.0623216
-0.0593978
-0.0563369
-0.0531457
-0.0498357
-0.0464228
-0.0429291
-0.0393814
-0.0358123
-0.0322578
-0.0287573
-0.0253494
-0.0220733
-0.0189638
-0.0160543
-0.0133695
-0.0109322
-0.00875269
-0.00684049
-0.00519002
-0.0037971
-0.0026412
-0.00171209
-0.000981646
-0.000437905
-4.45592e-05
0.000209463
0.000366853
0.000431062
0.000448613
0.000408558
0.000363349
0.000282195
0.000229402
0.000144346
0.0001104
2.05702e-05
-6.88526e-06
-0.00014034
-0.07312
-0.0802901
-0.0856333
-0.0891369
-0.0913013
-0.0927796
-0.0940193
-0.0952007
-0.096337
-0.0973831
-0.0983008
-0.0990795
-0.0997296
-0.100268
-0.10071
-0.101061
-0.101324
-0.101495
-0.101571
-0.10155
-0.10143
-0.101213
-0.100899
-0.100492
-0.0999955
-0.0994132
-0.0987491
-0.0980065
-0.0971884
-0.0962973
-0.095335
-0.0943024
-0.0932002
-0.092028
-0.0907851
-0.0894702
-0.0880812
-0.086616
-0.0850719
-0.0834458
-0.0817347
-0.0799353
-0.0780445
-0.0760593
-0.0739771
-0.0717958
-0.0695139
-0.0671306
-0.0646459
-0.0620608
-0.0593775
-0.0565994
-0.0537319
-0.0507818
-0.0477583
-0.0446733
-0.0415421
-0.0383843
-0.0352245
-0.0320917
-0.0290181
-0.0260373
-0.0231813
-0.0204783
-0.0179505
-0.0156154
-0.0134846
-0.0115677
-0.0098697
-0.00839381
-0.00713313
-0.00607543
-0.00519642
-0.00447607
-0.00388817
-0.00341735
-0.00303731
-0.00273506
-0.00248009
-0.00226566
-0.00206094
-0.00187426
-0.00167186
-0.00148126
-0.00125491
-0.00105168
-0.000796708
-0.000608991
-0.000355006
-0.000264875
-0.0679754
-0.0746049
-0.0800897
-0.0843272
-0.0874407
-0.0897391
-0.0915624
-0.0931489
-0.0946067
-0.0959535
-0.0971692
-0.0982332
-0.099139
-0.0998924
-0.100504
-0.100983
-0.101333
-0.101555
-0.101649
-0.101612
-0.101447
-0.101155
-0.10074
-0.100208
-0.099566
-0.0988194
-0.0979751
-0.0970388
-0.0960159
-0.0949109
-0.0937278
-0.0924693
-0.0911372
-0.0897325
-0.088255
-0.0867041
-0.0850786
-0.0833769
-0.0815971
-0.0797376
-0.0777967
-0.0757731
-0.0736658
-0.0714745
-0.0691995
-0.0668421
-0.0644046
-0.0618904
-0.0593041
-0.0566516
-0.05394
-0.0511777
-0.0483736
-0.0455375
-0.0426795
-0.0398112
-0.0369462
-0.0341013
-0.0312971
-0.0285593
-0.0259174
-0.0234025
-0.0210429
-0.0188588
-0.0168591
-0.0150422
-0.0134007
-0.0119296
-0.0106283
-0.00949891
-0.00853618
-0.00772459
-0.00703631
-0.00644221
-0.00591647
-0.00544605
-0.00501903
-0.00462864
-0.00425904
-0.00390287
-0.00354348
-0.00318215
-0.00280379
-0.00242316
-0.00201997
-0.00163119
-0.00121594
-0.00086426
-0.000472188
-0.000273781
-0.0635345
-0.0698252
-0.0753101
-0.0798954
-0.0835898
-0.0865266
-0.0889146
-0.0909528
-0.0927731
-0.0944338
-0.0959428
-0.0972867
-0.0984521
-0.0994342
-0.100236
-0.100862
-0.101319
-0.101608
-0.10173
-0.101687
-0.101482
-0.10112
-0.100607
-0.0999539
-0.0991685
-0.0982608
-0.0972397
-0.0961133
-0.0948894
-0.0935747
-0.0921755
-0.0906965
-0.0891411
-0.0875113
-0.0858079
-0.0840307
-0.0821792
-0.0802524
-0.0782495
-0.0761698
-0.0740132
-0.0717802
-0.069472
-0.067091
-0.0646404
-0.0621247
-0.0595497
-0.0569228
-0.0542528
-0.0515508
-0.0488289
-0.0461004
-0.0433779
-0.0406732
-0.0379972
-0.0353601
-0.0327728
-0.0302469
-0.0277962
-0.0254386
-0.0231989
-0.0211059
-0.0191861
-0.017455
-0.01591
-0.0145285
-0.0132809
-0.0121468
-0.0111223
-0.0102117
-0.00941584
-0.0087261
-0.00811793
-0.00755833
-0.00702035
-0.00649362
-0.00597735
-0.00547727
-0.00499567
-0.00453401
-0.00408533
-0.00364655
-0.0032062
-0.00276457
-0.00231065
-0.00185785
-0.00139381
-0.000965806
-0.000532246
-0.000263782
-0.060019
-0.0661166
-0.0715945
-0.0763758
-0.0804378
-0.0838349
-0.0866879
-0.0891417
-0.091316
-0.0932822
-0.0950662
-0.0966657
-0.0980683
-0.0992631
-0.100245
-0.101015
-0.101574
-0.101924
-0.102068
-0.102009
-0.101753
-0.101307
-0.100682
-0.0998933
-0.098953
-0.0978745
-0.0966692
-0.0953476
-0.0939193
-0.0923935
-0.0907783
-0.0890802
-0.0873043
-0.085454
-0.0835311
-0.0815365
-0.0794701
-0.0773318
-0.0751216
-0.07284
-0.0704883
-0.0680689
-0.0655854
-0.063043
-0.0604482
-0.0578086
-0.0551334
-0.052433
-0.0497199
-0.0470095
-0.0443193
-0.0416669
-0.0390679
-0.0365344
-0.0340758
-0.031699
-0.0294101
-0.0272141
-0.0251152
-0.023118
-0.0212372
-0.0194968
-0.0179193
-0.0165182
-0.0152894
-0.0141993
-0.0132054
-0.0122776
-0.0114069
-0.0105952
-0.00984022
-0.0091487
-0.00852012
-0.00793779
-0.00738213
-0.00684714
-0.00632517
-0.00580967
-0.00530003
-0.00479787
-0.00430243
-0.00381357
-0.00332874
-0.00284867
-0.00236937
-0.00189481
-0.00142174
-0.000972976
-0.000541198
-0.000254436
-0.0572032
-0.0632084
-0.0686908
-0.073585
-0.0778704
-0.0815797
-0.0847897
-0.087599
-0.0901001
-0.0923588
-0.0944071
-0.0962503
-0.0978785
-0.0992778
-0.100437
-0.101349
-0.102012
-0.102425
-0.102591
-0.102514
-0.102201
-0.101664
-0.10092
-0.0999862
-0.0988841
-0.0976308
-0.0962405
-0.0947257
-0.0930983
-0.0913693
-0.0895487
-0.0876452
-0.0856654
-0.0836142
-0.0814946
-0.0793086
-0.0770572
-0.0747412
-0.0723616
-0.0699201
-0.0674195
-0.064864
-0.0622595
-0.0596139
-0.0569371
-0.0542406
-0.051536
-0.0488353
-0.0461523
-0.0435047
-0.040913
-0.0383961
-0.035968
-0.033638
-0.0314106
-0.0292873
-0.0272674
-0.0253509
-0.0235383
-0.0218317
-0.0202348
-0.0187572
-0.0174112
-0.0161981
-0.0151037
-0.0141117
-0.0132043
-0.0123625
-0.0115746
-0.0108394
-0.0101555
-0.00949819
-0.00884756
-0.0081984
-0.00756015
-0.00694233
-0.00635301
-0.00579514
-0.00526944
-0.00476971
-0.00428662
-0.00381303
-0.00334249
-0.00287276
-0.00240153
-0.00193059
-0.00146262
-0.0010106
-0.000591215
-0.00025063
-0.0548935
-0.060886
-0.0663844
-0.071345
-0.0757678
-0.0796902
-0.0831724
-0.0862816
-0.0890814
-0.0916216
-0.0939303
-0.0960144
-0.0978652
-0.0994667
-0.100802
-0.101858
-0.102627
-0.103105
-0.103294
-0.103198
-0.102829
-0.1022
-0.101332
-0.100253
-0.0989897
-0.0975644
-0.0959966
-0.0943032
-0.0924994
-0.0905986
-0.0886123
-0.0865498
-0.0844184
-0.0822233
-0.0799679
-0.0776548
-0.0752855
-0.0728615
-0.0703848
-0.0678579
-0.0652846
-0.0626702
-0.0600218
-0.057349
-0.0546636
-0.0519794
-0.049311
-0.0466697
-0.044072
-0.0415389
-0.0390888
-0.0367345
-0.0344823
-0.0323336
-0.0302861
-0.0283361
-0.0264785
-0.0247132
-0.0230496
-0.0215034
-0.020088
-0.018806
-0.017649
-0.0165952
-0.0155868
-0.0145876
-0.0135932
-0.0126217
-0.0117075
-0.0108732
-0.0101147
-0.00942601
-0.0087842
-0.0081677
-0.00756655
-0.00697963
-0.00640899
-0.00586089
-0.00533486
-0.00482666
-0.00433172
-0.00384631
-0.00336752
-0.00289385
-0.00242431
-0.0019591
-0.00150019
-0.00105749
-0.000646724
-0.000255538
-0.053428
-0.0593955
-0.0648699
-0.069843
-0.0743396
-0.0784009
-0.0820755
-0.0854109
-0.0884494
-0.0912249
-0.0937574
-0.0960511
-0.0980962
-0.0998743
-0.101364
-0.102547
-0.103407
-0.103938
-0.104138
-0.104015
-0.103583
-0.102865
-0.101888
-0.100679
-0.0992653
-0.0976774
-0.0959448
-0.0940931
-0.0921432
-0.0901116
-0.0880108
-0.0858501
-0.0836358
-0.0813718
-0.0790607
-0.0767038
-0.0743018
-0.0718558
-0.0693669
-0.0668374
-0.0642704
-0.0616711
-0.0590461
-0.0564043
-0.0537572
-0.051119
-0.0485067
-0.045942
-0.0434467
-0.0410397
-0.0387355
-0.0365427
-0.0344613
-0.0324825
-0.0305895
-0.028764
-0.0269912
-0.0252567
-0.0235644
-0.021935
-0.0203979
-0.0189815
-0.0177009
-0.0165395
-0.0154769
-0.014483
-0.0135407
-0.0126415
-0.0117872
-0.0109855
-0.0102422
-0.00954708
-0.00888524
-0.00824624
-0.00762654
-0.0070273
-0.00645063
-0.00589713
-0.00536509
-0.00485144
-0.0043521
-0.00386331
-0.0033824
-0.00290829
-0.00244109
-0.00198173
-0.00153195
-0.00109737
-0.000684606
-0.000263215
-0.0525507
-0.0585414
-0.0640224
-0.0690204
-0.0735754
-0.0777304
-0.0815288
-0.0850137
-0.0882206
-0.0911711
-0.0938725
-0.0963205
-0.0985013
-0.100395
-0.101981
-0.103238
-0.104152
-0.104716
-0.10493
-0.104803
-0.104353
-0.103605
-0.102588
-0.101336
-0.0998812
-0.0982548
-0.0964862
-0.0946011
-0.092621
-0.0905632
-0.088441
-0.0862639
-0.0840383
-0.0817683
-0.0794561
-0.0771029
-0.0747094
-0.0722761
-0.0698037
-0.0672939
-0.0647494
-0.0621742
-0.059574
-0.0569567
-0.0543322
-0.0517128
-0.0491131
-0.0465496
-0.0440393
-0.0415989
-0.0392427
-0.0369808
-0.034818
-0.0327529
-0.0307798
-0.0288914
-0.0270663
-0.0253047
-0.0236143
-0.0220118
-0.0205158
-0.0191386
-0.017885
-0.0167393
-0.0156708
-0.0146532
-0.0136758
-0.0127413
-0.0118608
-0.011042
-0.0102842
-0.00957816
-0.0089097
-0.00826799
-0.0076483
-0.00705015
-0.00647447
-0.00592147
-0.0053891
-0.00487381
-0.00437179
-0.00387988
-0.00339615
-0.00292023
-0.00245311
-0.00199675
-0.00155307
-0.00112361
-0.000706514
-0.000272424
)
;

boundaryField
{
    fixedWalls
    {
        type            zeroGradient;
    }
    inflowWall
    {
        type            zeroGradient;
    }
    outflowWall
    {
        type            fixedValue;
        value           uniform 0;
    }
    frontAndBack
    {
        type            empty;
    }
}


// ************************************************************************* //
