/*--------------------------------*- C++ -*----------------------------------*\
| =========                 |                                                 |
| \\      /  F ield         | OpenFOAM: The Open Source CFD Toolbox           |
|  \\    /   O peration     | Version:  2306                                  |
|   \\  /    A nd           | Website:  www.openfoam.com                      |
|    \\/     M anipulation  |                                                 |
\*---------------------------------------------------------------------------*/
FoamFile
{
    version     2.0;
    format      ascii;
    arch        "LSB;label=32;scalar=64";
    class       volVectorField;
    location    "0.22";
    object      U;
}
// * * * * * * * * * * * * * * * * * * * * * * * * * * * * * * * * * * * * * //

dimensions      [0 1 -1 0 0 0 0];

internalField   nonuniform List<vector> 
475
(
(0.814401 0.100525 0)
(0.775463 0.091909 0)
(0.700514 0.0435565 0)
(0.669112 -0.00179926 0)
(0.669135 -0.0672014 0)
(1.01651 0.13005 0)
(1.13259 0.1252 0)
(1.20455 0.058978 0)
(1.24617 -0.0105181 0)
(1.26542 -0.104105 0)
(1.0341 -0.00829125 0)
(1.18114 -0.0230653 0)
(1.29871 -0.0416496 0)
(1.36207 -0.069331 0)
(1.37639 -0.116605 0)
(1.01508 -0.141436 0)
(1.11957 -0.15729 0)
(1.16704 -0.118727 0)
(1.16577 -0.0950537 0)
(1.13258 -0.0924952 0)
(0.81272 -0.103758 0)
(0.760477 -0.101659 0)
(0.656274 -0.0637286 0)
(0.571939 -0.0402655 0)
(0.512374 -0.029908 0)
(-0.00924035 0.00816879 0)
(-0.0232251 0.00603748 0)
(-0.023924 -0.000449578 0)
(-0.00956083 -0.00598854 0)
(0.0148196 -0.00904083 0)
(0.0432716 -0.00994427 0)
(0.0711554 -0.00925521 0)
(0.0957915 -0.00769708 0)
(0.115855 -0.00585115 0)
(0.131084 -0.00408776 0)
(0.141879 -0.00259748 0)
(0.148962 -0.00144404 0)
(0.153143 -0.000614917 0)
(0.155186 -6.07553e-05 0)
(0.155746 0.000278691 0)
(0.155349 0.000459916 0)
(0.154392 0.000532599 0)
(0.153166 0.000532395 0)
(0.151876 0.000487039 0)
(0.150657 0.000417126 0)
(0.149588 0.000337257 0)
(0.148708 0.000257546 0)
(0.148026 0.000184675 0)
(0.147528 0.000122575 0)
(0.147191 7.29711e-05 0)
(0.146984 3.59012e-05 0)
(0.146875 1.02175e-05 0)
(0.146835 -5.93972e-06 0)
(0.146839 -1.47371e-05 0)
(0.146868 -1.81378e-05 0)
(0.146907 -1.81353e-05 0)
(0.146948 -1.61613e-05 0)
(0.146986 -1.3289e-05 0)
(0.147018 -1.02413e-05 0)
(0.147042 -7.44534e-06 0)
(0.14706 -5.10796e-06 0)
(0.147073 -3.28833e-06 0)
(0.147081 -1.95704e-06 0)
(0.147087 -1.04045e-06 0)
(0.147089 -4.50655e-07 0)
(0.147091 -1.03609e-07 0)
(0.147091 7.12609e-08 0)
(0.147091 1.26827e-07 0)
(0.147091 1.01174e-07 0)
(0.147091 3.44206e-08 0)
(-0.0128112 0.0268138 0)
(-0.0235853 0.011783 0)
(-0.00390406 -0.0154713 0)
(0.0387695 -0.0369498 0)
(0.0944772 -0.0484919 0)
(0.154095 -0.0512304 0)
(0.211023 -0.0476725 0)
(0.261251 -0.0405853 0)
(0.302858 -0.0321726 0)
(0.335459 -0.0239012 0)
(0.359656 -0.0166 0)
(0.376582 -0.0106266 0)
(0.387574 -0.00603124 0)
(0.393967 -0.0026909 0)
(0.396966 -0.000405704 0)
(0.397601 0.00104143 0)
(0.396699 0.0018575 0)
(0.394903 0.00221035 0)
(0.392697 0.00224228 0)
(0.390424 0.00206812 0)
(0.388308 0.00177679 0)
(0.38648 0.00143521 0)
(0.384999 0.00109155 0)
(0.383869 0.00077784 0)
(0.383062 0.000512462 0)
(0.382528 0.000302872 0)
(0.382209 0.000148416 0)
(0.382049 4.31069e-05 0)
(0.381997 -2.18949e-05 0)
(0.382012 -5.65983e-05 0)
(0.382063 -6.98903e-05 0)
(0.382128 -6.95425e-05 0)
(0.382194 -6.16114e-05 0)
(0.382253 -5.04015e-05 0)
(0.382301 -3.86937e-05 0)
(0.382339 -2.80748e-05 0)
(0.382366 -1.92769e-05 0)
(0.382385 -1.24755e-05 0)
(0.382397 -7.52609e-06 0)
(0.382405 -4.13253e-06 0)
(0.382409 -1.95787e-06 0)
(0.382411 -6.88353e-07 0)
(0.382412 -6.49001e-08 0)
(0.382413 1.11042e-07 0)
(0.382413 1.78769e-08 0)
(-0.00603442 0.0407954 0)
(0.00773795 -0.00404611 0)
(0.0676691 -0.0619311 0)
(0.142197 -0.101208 0)
(0.219992 -0.1194 0)
(0.294367 -0.120652 0)
(0.361007 -0.1105 0)
(0.417745 -0.0941338 0)
(0.464005 -0.075541 0)
(0.500219 -0.0573806 0)
(0.527404 -0.0411907 0)
(0.546865 -0.0276781 0)
(0.559991 -0.0169925 0)
(0.56812 -0.00895152 0)
(0.572464 -0.00320683 0)
(0.574075 0.000648214 0)
(0.573816 0.00301697 0)
(0.572382 0.00425437 0)
(0.570322 0.00467078 0)
(0.568041 0.00452786 0)
(0.565817 0.00403783 0)
(0.563828 0.00336723 0)
(0.562165 0.00264094 0)
(0.56086 0.00194615 0)
(0.559897 0.00133709 0)
(0.559235 0.000840721 0)
(0.558817 0.000463091 0)
(0.558584 0.00019583 0)
(0.558482 2.21312e-05 0)
(0.558465 -7.8618e-05 0)
(0.558498 -0.000126312 0)
(0.558555 -0.000138655 0)
(0.558618 -0.000129904 0)
(0.558677 -0.000110559 0)
(0.558728 -8.769e-05 0)
(0.558769 -6.55865e-05 0)
(0.558799 -4.6478e-05 0)
(0.558821 -3.11986e-05 0)
(0.558835 -1.97319e-05 0)
(0.558845 -1.16151e-05 0)
(0.55885 -6.21199e-06 0)
(0.558853 -2.87942e-06 0)
(0.558855 -1.05453e-06 0)
(0.558856 -2.86138e-07 0)
(0.558856 -1.97705e-07 0)
(0.0357848 0.0429246 0)
(0.0981436 -0.0629218 0)
(0.207773 -0.148256 0)
(0.309972 -0.191413 0)
(0.396082 -0.203281 0)
(0.46735 -0.194275 0)
(0.525125 -0.172632 0)
(0.570873 -0.144851 0)
(0.606317 -0.115653 0)
(0.633167 -0.0880854 0)
(0.65297 -0.0638471 0)
(0.66708 -0.0436608 0)
(0.676664 -0.0276048 0)
(0.682717 -0.0153755 0)
(0.686086 -0.00647909 0)
(0.687489 -0.000356431 0)
(0.687506 0.00353913 0)
(0.686613 0.00571321 0)
(0.685204 0.00661036 0)
(0.683578 0.00661039 0)
(0.681948 0.00602997 0)
(0.680456 0.00512464 0)
(0.679185 0.00409121 0)
(0.678168 0.00307124 0)
(0.677402 0.00215652 0)
(0.676863 0.00139656 0)
(0.676511 0.000807553 0)
(0.676305 0.000382084 0)
(0.676205 9.82145e-05 0)
(0.676174 -7.24614e-05 0)
(0.676186 -0.000159684 0)
(0.676221 -0.000190041 0)
(0.676264 -0.000185312 0)
(0.676306 -0.00016186 0)
(0.676343 -0.000130964 0)
(0.676373 -9.9676e-05 0)
(0.676397 -7.18508e-05 0)
(0.676413 -4.91315e-05 0)
(0.676425 -3.17744e-05 0)
(0.676433 -1.92727e-05 0)
(0.676437 -1.07875e-05 0)
(0.67644 -5.41722e-06 0)
(0.676441 -2.34483e-06 0)
(0.676442 -8.97573e-07 0)
(0.676442 -5.29641e-07 0)
(0.195942 -0.12016 0)
(0.306824 -0.222047 0)
(0.451276 -0.275744 0)
(0.553321 -0.290904 0)
(0.618929 -0.279178 0)
(0.662048 -0.251261 0)
(0.690611 -0.215018 0)
(0.709232 -0.17613 0)
(0.721168 -0.138527 0)
(0.728754 -0.104611 0)
(0.733557 -0.0755726 0)
(0.73657 -0.0517423 0)
(0.738402 -0.0329126 0)
(0.739426 -0.0185783 0)
(0.739873 -0.00810381 0)
(0.739904 -0.000828547 0)
(0.739634 0.003855 0)
(0.739159 0.00652862 0)
(0.738568 0.0076971 0)
(0.737935 0.00779101 0)
(0.737317 0.00717525 0)
(0.736757 0.00614992 0)
(0.73628 0.00495017 0)
(0.735896 0.00374828 0)
(0.735605 0.00265842 0)
(0.735397 0.00174436 0)
(0.735261 0.00102953 0)
(0.735179 0.000508164 0)
(0.735137 0.000156251 0)
(0.735122 -5.89908e-05 0)
(0.735125 -0.000172286 0)
(0.735136 -0.000215525 0)
(0.735151 -0.000214925 0)
(0.735166 -0.000190333 0)
(0.735179 -0.00015558 0)
(0.735191 -0.000119437 0)
(0.735199 -8.68021e-05 0)
(0.735205 -5.98669e-05 0)
(0.73521 -3.91055e-05 0)
(0.735213 -2.40266e-05 0)
(0.735214 -1.36997e-05 0)
(0.735216 -7.08852e-06 0)
(0.735216 -3.23695e-06 0)
(0.735216 -1.34753e-06 0)
(0.735217 -7.77008e-07 0)
(0.831569 -0.300871 0)
(0.829711 -0.351571 0)
(0.842605 -0.357653 0)
(0.853802 -0.341036 0)
(0.8511 -0.307642 0)
(0.838261 -0.264962 0)
(0.820741 -0.219379 0)
(0.802085 -0.175228 0)
(0.784506 -0.135154 0)
(0.769311 -0.100512 0)
(0.757057 -0.0717115 0)
(0.747755 -0.0485543 0)
(0.7411 -0.030505 0)
(0.736641 -0.0168835 0)
(0.733898 -0.00698166 0)
(0.73241 -0.000128226 0)
(0.731805 0.00427117 0)
(0.731787 0.00676485 0)
(0.732114 0.00782477 0)
(0.732611 0.00785672 0)
(0.733162 0.00720757 0)
(0.733692 0.00616512 0)
(0.734156 0.00495696 0)
(0.734534 0.00375108 0)
(0.734824 0.00265938 0)
(0.735031 0.00174451 0)
(0.735168 0.00102935 0)
(0.73525 0.000507886 0)
(0.735292 0.000155983 0)
(0.735307 -5.92122e-05 0)
(0.735305 -0.000172448 0)
(0.735294 -0.000215634 0)
(0.73528 -0.000214993 0)
(0.735265 -0.000190372 0)
(0.735251 -0.000155602 0)
(0.73524 -0.000119448 0)
(0.735231 -8.68069e-05 0)
(0.735225 -5.98688e-05 0)
(0.735221 -3.9106e-05 0)
(0.735218 -2.40267e-05 0)
(0.735216 -1.36998e-05 0)
(0.735215 -7.08886e-06 0)
(0.735214 -3.23795e-06 0)
(0.735214 -1.34968e-06 0)
(0.735214 -7.79077e-07 0)
(1.27143 -0.249495 0)
(1.20483 -0.309987 0)
(1.1261 -0.317668 0)
(1.05294 -0.298093 0)
(0.982584 -0.263163 0)
(0.916196 -0.221333 0)
(0.856956 -0.178911 0)
(0.806645 -0.139697 0)
(0.765636 -0.105517 0)
(0.733491 -0.0769403 0)
(0.709289 -0.0538126 0)
(0.691848 -0.0356064 0)
(0.679919 -0.0216499 0)
(0.672315 -0.0112576 0)
(0.667981 -0.00379569 0)
(0.666012 0.00129436 0)
(0.665681 0.0045059 0)
(0.66641 0.00625242 0)
(0.667739 0.00689647 0)
(0.669327 0.00675514 0)
(0.67094 0.00610007 0)
(0.672424 0.00515724 0)
(0.673692 0.00410569 0)
(0.674709 0.00307721 0)
(0.675474 0.00215857 0)
(0.676014 0.00139684 0)
(0.676365 0.0008071 0)
(0.676571 0.00038141 0)
(0.676672 9.75777e-05 0)
(0.676703 -7.29934e-05 0)
(0.676691 -0.000160074 0)
(0.676656 -0.000190301 0)
(0.676614 -0.000185473 0)
(0.676572 -0.000161952 0)
(0.676534 -0.000131013 0)
(0.676504 -9.96998e-05 0)
(0.676481 -7.18611e-05 0)
(0.676464 -4.91352e-05 0)
(0.676453 -3.17752e-05 0)
(0.676445 -1.92727e-05 0)
(0.67644 -1.07876e-05 0)
(0.676438 -5.41792e-06 0)
(0.676436 -2.34736e-06 0)
(0.676435 -9.03093e-07 0)
(0.676435 -5.34947e-07 0)
(1.34031 -0.185058 0)
(1.24914 -0.219582 0)
(1.13618 -0.219026 0)
(1.02476 -0.199161 0)
(0.922123 -0.170556 0)
(0.83163 -0.139386 0)
(0.755539 -0.109616 0)
(0.694195 -0.0833809 0)
(0.646459 -0.0614093 0)
(0.610544 -0.0436312 0)
(0.584491 -0.0296176 0)
(0.5664 -0.0188207 0)
(0.554554 -0.0106939 0)
(0.547467 -0.00474574 0)
(0.543898 -0.000555558 0)
(0.542824 0.00222955 0)
(0.543432 0.00391166 0)
(0.545076 0.00473458 0)
(0.547256 0.00491585 0)
(0.549602 0.00464738 0)
(0.551858 0.00409401 0)
(0.553863 0.00339291 0)
(0.555533 0.00265237 0)
(0.556841 0.00195094 0)
(0.557804 0.00133874 0)
(0.558467 0.00084088 0)
(0.558885 0.000462591 0)
(0.559118 0.000195111 0)
(0.55922 2.14123e-05 0)
(0.559236 -7.918e-05 0)
(0.559203 -0.00012671 0)
(0.559147 -0.000138913 0)
(0.559084 -0.000130059 0)
(0.559024 -0.000110645 0)
(0.558973 -8.77337e-05 0)
(0.558933 -6.56066e-05 0)
(0.558902 -4.6486e-05 0)
(0.558881 -3.1201e-05 0)
(0.558866 -1.9732e-05 0)
(0.558857 -1.16146e-05 0)
(0.558851 -6.21173e-06 0)
(0.558848 -2.88006e-06 0)
(0.558846 -1.05753e-06 0)
(0.558846 -2.92436e-07 0)
(0.558845 -2.03577e-07 0)
(1.0655 -0.105359 0)
(0.966591 -0.109867 0)
(0.855711 -0.100903 0)
(0.750372 -0.0855069 0)
(0.657969 -0.069052 0)
(0.580683 -0.0537568 0)
(0.518645 -0.0405355 0)
(0.470623 -0.0296745 0)
(0.434626 -0.0210432 0)
(0.408509 -0.0143283 0)
(0.390281 -0.00919207 0)
(0.378208 -0.00533151 0)
(0.370832 -0.00249197 0)
(0.366952 -0.000466159 0)
(0.365594 0.00091167 0)
(0.365973 0.001778 0)
(0.367466 0.00224407 0)
(0.369588 0.00240125 0)
(0.371963 0.00233161 0)
(0.374321 0.00210833 0)
(0.376477 0.00179475 0)
(0.378323 0.00144348 0)
(0.379812 0.00109553 0)
(0.380945 0.000779707 0)
(0.381754 0.000513159 0)
(0.382288 0.000302903 0)
(0.382606 0.000148109 0)
(0.382766 4.26799e-05 0)
(0.382818 -2.23261e-05 0)
(0.382803 -5.69203e-05 0)
(0.382751 -7.01075e-05 0)
(0.382686 -6.96766e-05 0)
(0.38262 -6.16867e-05 0)
(0.382561 -5.044e-05 0)
(0.382513 -3.87115e-05 0)
(0.382475 -2.8082e-05 0)
(0.382448 -1.92793e-05 0)
(0.382429 -1.2476e-05 0)
(0.382417 -7.52594e-06 0)
(0.382409 -4.13233e-06 0)
(0.382405 -1.95805e-06 0)
(0.382403 -6.89358e-07 0)
(0.382402 -6.74532e-08 0)
(0.382402 1.06791e-07 0)
(0.382401 1.43961e-08 0)
(0.455433 -0.0271189 0)
(0.394181 -0.024374 0)
(0.335059 -0.0196644 0)
(0.284262 -0.0147153 0)
(0.243309 -0.0106353 0)
(0.21141 -0.00750509 0)
(0.187281 -0.00515861 0)
(0.169556 -0.00343512 0)
(0.156919 -0.00218371 0)
(0.148234 -0.00127729 0)
(0.142574 -0.000623129 0)
(0.139195 -0.000156841 0)
(0.137505 0.000166959 0)
(0.137032 0.000381069 0)
(0.137403 0.00050855 0)
(0.138319 0.000568867 0)
(0.139547 0.000577976 0)
(0.140904 0.000548202 0)
(0.142254 0.000491168 0)
(0.143499 0.00041769 0)
(0.144579 0.000337265 0)
(0.145464 0.000257731 0)
(0.146149 0.000184984 0)
(0.146648 0.000122834 0)
(0.146985 7.30947e-05 0)
(0.147193 3.58964e-05 0)
(0.147302 1.01352e-05 0)
(0.147342 -6.04466e-06 0)
(0.147338 -1.48179e-05 0)
(0.147309 -1.82088e-05 0)
(0.147269 -1.81826e-05 0)
(0.147228 -1.61879e-05 0)
(0.14719 -1.33019e-05 0)
(0.147158 -1.02466e-05 0)
(0.147134 -7.44697e-06 0)
(0.147116 -5.1082e-06 0)
(0.147103 -3.28823e-06 0)
(0.147095 -1.95696e-06 0)
(0.147089 -1.04045e-06 0)
(0.147087 -4.5077e-07 0)
(0.147085 -1.0395e-07 0)
(0.147085 7.05674e-08 0)
(0.147085 1.25776e-07 0)
(0.147085 9.98106e-08 0)
(0.147085 3.3485e-08 0)
)
;

boundaryField
{
    fixedWalls
    {
        type            noSlip;
    }
    inflowWall
    {
        type            fixedValue;
        value           uniform (1 0 0);
    }
    outflowWall
    {
        type            zeroGradient;
    }
    frontAndBack
    {
        type            empty;
    }
}


// ************************************************************************* //
