/*--------------------------------*- C++ -*----------------------------------*\
| =========                 |                                                 |
| \\      /  F ield         | OpenFOAM: The Open Source CFD Toolbox           |
|  \\    /   O peration     | Version:  2306                                  |
|   \\  /    A nd           | Website:  www.openfoam.com                      |
|    \\/     M anipulation  |                                                 |
\*---------------------------------------------------------------------------*/
FoamFile
{
    version     2.0;
    format      ascii;
    arch        "LSB;label=32;scalar=64";
    class       volScalarField;
    location    "3.97";
    object      p;
}
// * * * * * * * * * * * * * * * * * * * * * * * * * * * * * * * * * * * * * //

dimensions      [0 2 -2 0 0 0 0];

internalField   nonuniform List<scalar> 
1900
(
0.0570874
0.0328636
0.0124692
-0.00287533
-0.0139005
-0.0244641
-0.0349164
-0.0470965
-0.0596711
-0.0737528
0.0278267
0.0196275
0.00830939
-0.00324662
-0.0142762
-0.0244707
-0.0349131
-0.0454379
-0.0569483
-0.0680139
0.0187357
0.0142445
0.00672752
-0.00264272
-0.0127291
-0.0227113
-0.032494
-0.0420502
-0.0514814
-0.060573
0.0130365
0.00996295
0.00431247
-0.0033369
-0.0121898
-0.0214317
-0.0306247
-0.0395408
-0.0481364
-0.0562973
0.0108148
0.00827943
0.00354071
-0.0031074
-0.0110861
-0.0196894
-0.0283637
-0.0367862
-0.0448065
-0.0523351
0.0114515
0.00897094
0.00436069
-0.00210362
-0.00984102
-0.018143
-0.0264505
-0.034446
-0.0420051
-0.0490987
0.0149093
0.0119637
0.00668362
-0.000397933
-0.00845587
-0.0167395
-0.0247831
-0.0324089
-0.0396085
-0.0464168
0.0216102
0.0173154
0.0104192
0.00195261
-0.00686403
-0.0152839
-0.0231111
-0.0304391
-0.0374171
-0.0441069
0.0317527
0.0236544
0.0132203
0.00276245
-0.00654018
-0.014646
-0.0220073
-0.0290463
-0.0359265
-0.0426072
0.0606037
0.0379324
0.0182278
0.00416854
-0.0054839
-0.0131725
-0.0203931
-0.0276005
-0.0347444
-0.0416191
-0.0969899
-0.0970234
-0.0970682
-0.0971222
-0.0971825
-0.0972486
-0.0973202
-0.097396
-0.0974749
-0.0975553
-0.0976356
-0.0977142
-0.0977894
-0.0978595
-0.097923
-0.0979783
-0.0980241
-0.098059
-0.0980818
-0.0980914
-0.0980871
-0.0980681
-0.0980338
-0.0979838
-0.0979178
-0.0978356
-0.097737
-0.0976222
-0.097491
-0.0973437
-0.0971804
-0.0970017
-0.096808
-0.0966001
-0.0963785
-0.0961429
-0.0958915
-0.0956197
-0.0953187
-0.0949736
-0.0945628
-0.0940571
-0.0934209
-0.0926137
-0.0915914
-0.0903062
-0.088705
-0.0867258
-0.0842964
-0.0813372
-0.0777643
-0.0734935
-0.0684595
-0.0626253
-0.0559874
-0.0485954
-0.0405249
-0.031883
-0.0228116
-0.013482
-0.00408062
0.00520044
0.0141721
0.0226566
0.0304942
0.0375531
0.0437282
0.0489538
0.0531891
0.0564295
0.0586889
0.060014
0.0604582
0.0601013
0.0590164
0.0572962
0.0550183
0.0522751
0.0491336
0.0456759
0.0419505
0.0380251
0.0339257
0.0297068
0.0253688
0.0209587
0.016446
0.0118852
0.00719869
0.00248175
-0.0969855
-0.0970171
-0.0970441
-0.0970857
-0.0971369
-0.0971965
-0.0972628
-0.0973342
-0.0974092
-0.0974862
-0.0975636
-0.0976398
-0.097713
-0.0977815
-0.0978437
-0.097898
-0.097943
-0.0979772
-0.0979994
-0.0980085
-0.0980036
-0.0979838
-0.0979486
-0.0978972
-0.0978295
-0.097745
-0.0976436
-0.0975251
-0.0973895
-0.0972366
-0.0970664
-0.0968789
-0.0966739
-0.0964513
-0.0962108
-0.0959515
-0.0956713
-0.0953663
-0.0950294
-0.0946495
-0.0942109
-0.0936922
-0.0930662
-0.0922998
-0.0913532
-0.0901789
-0.0887205
-0.0869078
-0.0846539
-0.0818597
-0.0784241
-0.0742604
-0.0693171
-0.0635889
-0.0570618
-0.0497487
-0.0417196
-0.0330941
-0.0240188
-0.014669
-0.00523585
0.00408554
0.0130963
0.0216178
0.0294926
0.0365827
0.0427786
0.0480252
0.052278
0.0555354
0.0578088
0.0591486
0.0596062
0.0592664
0.0582013
0.0565091
0.0542604
0.0515539
0.0484481
0.0450344
0.04135
0.0374753
0.033421
0.0292585
0.0249696
0.0206216
0.0161629
0.011663
0.00704274
0.00240886
-0.0968678
-0.0969491
-0.0969946
-0.0970482
-0.0971044
-0.097166
-0.0972339
-0.0973072
-0.0973844
-0.097464
-0.0975443
-0.0976236
-0.0977001
-0.0977719
-0.0978374
-0.0978949
-0.0979428
-0.0979798
-0.0980044
-0.0980154
-0.0980119
-0.0979929
-0.097958
-0.0979065
-0.0978381
-0.0977526
-0.09765
-0.0975303
-0.0973935
-0.0972398
-0.0970691
-0.0968812
-0.0966755
-0.0964515
-0.0962082
-0.0959442
-0.0956571
-0.0953432
-0.0949977
-0.0946138
-0.0941825
-0.093691
-0.093121
-0.0924469
-0.0916307
-0.0906193
-0.0893444
-0.0877232
-0.0856519
-0.0830235
-0.0797517
-0.0757391
-0.0709003
-0.0651953
-0.058644
-0.0512962
-0.0432337
-0.0345778
-0.0254695
-0.0160908
-0.00665667
0.00265429
0.0116494
0.0201542
0.0280025
0.0350668
0.041236
0.046453
0.0506748
0.0539048
0.0561545
0.0574797
0.057931
0.0575977
0.0565483
0.0548858
0.0526771
0.0500254
0.0469846
0.0436499
0.0400539
0.0362803
0.0323362
0.0282945
0.024136
0.0199259
0.0156181
0.0112768
0.00683484
0.00236714
-0.0969502
-0.0970238
-0.097028
-0.0970538
-0.0970994
-0.0971616
-0.0972349
-0.0973156
-0.0974011
-0.0974891
-0.0975778
-0.0976649
-0.0977486
-0.097827
-0.0978983
-0.0979607
-0.0980127
-0.0980528
-0.0980796
-0.0980919
-0.0980888
-0.0980695
-0.0980334
-0.09798
-0.097909
-0.0978203
-0.0977141
-0.0975905
-0.0974497
-0.0972921
-0.0971175
-0.0969256
-0.0967157
-0.0964863
-0.0962362
-0.0959644
-0.0956697
-0.0953509
-0.095006
-0.0946315
-0.0942216
-0.0937683
-0.09326
-0.0926734
-0.0919677
-0.0910807
-0.0899321
-0.0884443
-0.0865029
-0.0839852
-0.0807784
-0.0768124
-0.0720093
-0.0663483
-0.0598368
-0.0525283
-0.044511
-0.0359122
-0.0268835
-0.0176077
-0.00828744
0.000887753
0.00972712
0.0180607
0.0257285
0.0326108
0.0386049
0.0436565
0.0477279
0.0508275
0.0529718
0.05422
0.0546256
0.0542788
0.0532484
0.0516364
0.0495099
0.0469689
0.0440669
0.0408942
0.0374841
0.0339138
0.0301939
0.0263889
0.0224867
0.0185423
0.0145219
0.010475
0.00634723
0.00218815
-0.0966234
-0.0968288
-0.0969195
-0.0970237
-0.0971224
-0.0972157
-0.0973082
-0.0974034
-0.097501
-0.0975993
-0.0976966
-0.0977909
-0.0978805
-0.0979635
-0.0980381
-0.0981027
-0.0981557
-0.0981958
-0.0982213
-0.0982313
-0.0982248
-0.0982012
-0.09816
-0.098101
-0.098024
-0.0979292
-0.0978169
-0.0976877
-0.0975421
-0.0973804
-0.0972027
-0.0970085
-0.0967966
-0.096565
-0.0963122
-0.0960379
-0.0957416
-0.0954233
-0.0950828
-0.0947186
-0.094326
-0.0938972
-0.0934258
-0.0928868
-0.0922355
-0.0914008
-0.0902974
-0.0888236
-0.086886
-0.0843713
-0.0811718
-0.0772089
-0.0724221
-0.0667932
-0.0603384
-0.0531177
-0.0452256
-0.0367931
-0.0279771
-0.0189562
-0.00992461
-0.00107124
0.00742082
0.0153899
0.0226893
0.0292083
0.0348576
0.0395903
0.0433792
0.0462385
0.0481929
0.0493037
0.0496289
0.0492564
0.0482569
0.0467262
0.0447325
0.042367
0.0396842
0.0367636
0.0336415
0.030383
0.0270044
0.0235576
0.0200395
0.0164913
0.0128926
0.00927725
0.0056101
0.00192556
-0.0974558
-0.0974782
-0.0973767
-0.0973316
-0.0973421
-0.0973999
-0.0974879
-0.0975888
-0.0976919
-0.0977938
-0.0978925
-0.0979863
-0.0980735
-0.0981527
-0.0982223
-0.098281
-0.0983275
-0.0983604
-0.0983783
-0.0983803
-0.0983654
-0.0983334
-0.098284
-0.0982173
-0.0981331
-0.0980315
-0.0979131
-0.0977787
-0.0976291
-0.0974644
-0.0972847
-0.0970894
-0.0968767
-0.096644
-0.0963909
-0.0961189
-0.0958266
-0.0955133
-0.0951788
-0.0948217
-0.0944369
-0.0940113
-0.0935248
-0.0929581
-0.0922641
-0.0913753
-0.0902063
-0.0886636
-0.0866461
-0.0840521
-0.080785
-0.0767745
-0.0719752
-0.066378
-0.0600085
-0.0529338
-0.0452553
-0.0371073
-0.0286476
-0.0200508
-0.0114991
-0.00317114
0.00476567
0.0121635
0.0188945
0.0248617
0.029994
0.0342559
0.0376353
0.0401529
0.0418441
0.0427703
0.0429949
0.0425998
0.0416571
0.0402524
0.0384533
0.0363382
0.0339615
0.0313891
0.0286583
0.0258206
0.0228963
0.0199236
0.0169071
0.0138743
0.0108163
0.00775409
0.00466948
0.00158351
-0.096127
-0.0967747
-0.0969775
-0.0972342
-0.0974499
-0.0976132
-0.0977356
-0.0978367
-0.0979296
-0.0980178
-0.0981019
-0.0981806
-0.0982527
-0.0983169
-0.0983721
-0.0984172
-0.098451
-0.0984724
-0.0984797
-0.0984718
-0.0984479
-0.0984076
-0.0983507
-0.0982772
-0.0981868
-0.0980792
-0.0979561
-0.0978186
-0.097667
-0.0975011
-0.0973208
-0.0971255
-0.0969135
-0.0966818
-0.0964253
-0.0961428
-0.095837
-0.0955066
-0.0951488
-0.0947592
-0.0943297
-0.0938474
-0.0932911
-0.0926306
-0.0918177
-0.0907871
-0.0894578
-0.0877412
-0.0855452
-0.0827831
-0.0793772
-0.0752722
-0.0704383
-0.0648795
-0.0586337
-0.0517765
-0.0444148
-0.0366842
-0.0287381
-0.0207437
-0.0128676
-0.00527015
0.00190509
0.00853271
0.0145101
0.01976
0.0242334
0.0279098
0.0307934
0.0329119
0.0343091
0.0350444
0.0351828
0.0347973
0.0339578
0.0327369
0.0311984
0.029406
0.0274112
0.025265
0.0230043
0.0206663
0.018274
0.0158523
0.0134116
0.0109673
0.00852011
0.00607948
0.00364075
0.00121442
-0.100843
-0.0994623
-0.098834
-0.0984007
-0.0981743
-0.0980851
-0.0980733
-0.0980976
-0.0981363
-0.0981818
-0.098231
-0.0982807
-0.0983287
-0.0983734
-0.0984129
-0.0984451
-0.0984688
-0.0984808
-0.0984792
-0.0984637
-0.0984339
-0.0983894
-0.0983301
-0.0982551
-0.0981637
-0.0980549
-0.0979266
-0.0977808
-0.0976193
-0.0974416
-0.0972461
-0.0970308
-0.0967933
-0.0965303
-0.0962387
-0.0959161
-0.0955605
-0.0951688
-0.0947356
-0.0942534
-0.0937108
-0.0930911
-0.0923694
-0.0915113
-0.0904698
-0.0891849
-0.0875853
-0.0855944
-0.0831352
-0.0801394
-0.0765521
-0.0723384
-0.0674871
-0.0620176
-0.0559793
-0.0494537
-0.0425473
-0.0353915
-0.0281293
-0.0209123
-0.0138863
-0.00718937
-0.000936037
0.00477764
0.00987887
0.0143148
0.0180599
0.0211087
0.0234785
0.025201
0.0263232
0.0268986
0.0269889
0.0266556
0.0259629
0.0249693
0.0237328
0.0223023
0.0207249
0.0190372
0.0172743
0.0154608
0.0136208
0.0117679
0.00991712
0.00807346
0.00624543
0.00443233
0.00263865
0.000861624
-0.0949969
-0.0960869
-0.0969252
-0.0975376
-0.0978545
-0.0979729
-0.0980071
-0.0980202
-0.0980358
-0.0980657
-0.098105
-0.0981458
-0.0981866
-0.0982259
-0.0982617
-0.0982923
-0.0983169
-0.0983348
-0.0983405
-0.0983292
-0.0982996
-0.0982516
-0.0981857
-0.098102
-0.0979984
-0.0978725
-0.0977229
-0.0975495
-0.0973525
-0.0971307
-0.0968821
-0.0966038
-0.0962924
-0.0959441
-0.0955543
-0.0951186
-0.0946323
-0.0940899
-0.0934841
-0.0928048
-0.0920378
-0.0911642
-0.0901591
-0.0889902
-0.0876156
-0.0859853
-0.0840427
-0.0817287
-0.0789864
-0.0757667
-0.0720324
-0.067768
-0.0629818
-0.0577087
-0.0520076
-0.0459625
-0.039675
-0.0332637
-0.0268521
-0.0205666
-0.014523
-0.00882855
-0.00357041
0.00118127
0.00538214
0.00900284
0.0120374
0.0144906
0.0163875
0.0177585
0.0186492
0.0191039
0.0191782
0.0189211
0.0183904
0.0176317
0.0166972
0.0156227
0.0144507
0.0132051
0.0119192
0.0106056
0.00928993
0.0079747
0.00667989
0.00540001
0.00415198
0.00292419
0.00173211
0.000557943
-0.117688
-0.102759
-0.100832
-0.0993555
-0.0984405
-0.098012
-0.0978374
-0.0977748
-0.0977547
-0.0977572
-0.0977947
-0.0978561
-0.0979208
-0.097981
-0.098035
-0.0980814
-0.0981176
-0.0981398
-0.0981427
-0.0981214
-0.0980737
-0.0979997
-0.0979002
-0.0977741
-0.0976183
-0.0974298
-0.0972058
-0.0969446
-0.0966446
-0.0963038
-0.0959201
-0.0954909
-0.0950124
-0.0944806
-0.0938907
-0.0932376
-0.0925159
-0.0917193
-0.09084
-0.0898677
-0.0887885
-0.0875839
-0.0862289
-0.0846939
-0.0829452
-0.0809457
-0.0786557
-0.0760361
-0.073052
-0.0696768
-0.0658965
-0.0617144
-0.0571518
-0.05225
-0.0470669
-0.0416773
-0.0361681
-0.0306368
-0.0251821
-0.019902
-0.0148835
-0.0102042
-0.00592522
-0.00209483
0.00126382
0.00413787
0.00653218
0.00845613
0.0099366
0.0110012
0.0116921
0.0120458
0.0121114
0.0119278
0.0115462
0.0110022
0.0103426
0.0095925
0.00879039
0.00794878
0.00709892
0.00624176
0.0054041
0.00457699
0.00378606
0.00301369
0.0022871
0.00158038
0.000923748
0.000279587
-0.0852253
-0.0916897
-0.0941979
-0.0950389
-0.0954838
-0.0958828
-0.0962517
-0.0965611
-0.0968286
-0.0970616
-0.0972615
-0.0974309
-0.0975728
-0.0976908
-0.0977871
-0.0978612
-0.0979101
-0.097929
-0.0979128
-0.0978571
-0.0977591
-0.0976173
-0.0974311
-0.0971993
-0.0969201
-0.0965912
-0.0962107
-0.0957771
-0.0952889
-0.0947442
-0.0941402
-0.0934728
-0.0927386
-0.091934
-0.0910555
-0.0900987
-0.0890589
-0.0879303
-0.0867059
-0.0853767
-0.0839314
-0.0823554
-0.080631
-0.0787381
-0.0766544
-0.0743566
-0.071821
-0.0690263
-0.0659554
-0.0625987
-0.0589562
-0.0550399
-0.0508742
-0.0464971
-0.0419574
-0.0373147
-0.0326382
-0.0280037
-0.023488
-0.0191661
-0.0151043
-0.011359
-0.0079696
-0.00496313
-0.00234978
-0.000132728
0.00169777
0.00315404
0.00426278
0.00505085
0.00555773
0.00581596
0.00586919
0.00574933
0.00550057
0.00514987
0.00473779
0.00428108
0.00381353
0.00333862
0.00288389
0.00243981
0.00203216
0.00164066
0.00129554
0.000966679
0.000692072
0.00042799
0.000222372
1.37679e-05
-0.0792634
-0.0870425
-0.0910263
-0.0924519
-0.0928859
-0.0932214
-0.0937167
-0.094329
-0.0949445
-0.0954884
-0.0959384
-0.0963033
-0.0966011
-0.0968464
-0.0970459
-0.0971998
-0.0973036
-0.0973512
-0.0973365
-0.0972545
-0.0971018
-0.0968765
-0.096578
-0.0962063
-0.0957616
-0.095244
-0.0946536
-0.0939904
-0.0932544
-0.0924453
-0.0915619
-0.0906027
-0.0895663
-0.0884509
-0.0872544
-0.0859744
-0.0846075
-0.0831501
-0.0815973
-0.0799433
-0.0781809
-0.0763016
-0.074295
-0.0721497
-0.0698532
-0.067392
-0.0647532
-0.0619263
-0.0589051
-0.0556885
-0.0522828
-0.0487023
-0.0449713
-0.041124
-0.0372042
-0.0332632
-0.0293554
-0.025537
-0.0218646
-0.0183928
-0.0151696
-0.0122334
-0.00961042
-0.00731659
-0.00535522
-0.00371933
-0.00239093
-0.00135107
-0.000573252
-3.04969e-05
0.000313516
0.000491657
0.000543893
0.000498959
0.000391049
0.000238508
6.99995e-05
-0.000104531
-0.000259939
-0.000397815
-0.000498092
-0.000576027
-0.000611741
-0.000632245
-0.000608105
-0.000576966
-0.000494303
-0.00041778
-0.00028238
-0.00017511
-0.0690446
-0.07624
-0.0815837
-0.0850686
-0.0872061
-0.0886557
-0.0898658
-0.0910152
-0.092116
-0.0931226
-0.0939975
-0.094731
-0.0953335
-0.095822
-0.0962096
-0.0965029
-0.0967019
-0.0968038
-0.0968044
-0.0967004
-0.0964901
-0.0961732
-0.095751
-0.0952256
-0.0946002
-0.0938776
-0.0930609
-0.0921531
-0.0911566
-0.0900737
-0.0889059
-0.0876544
-0.0863197
-0.0849016
-0.0833999
-0.0818134
-0.0801409
-0.0783807
-0.0765304
-0.0745876
-0.0725489
-0.070411
-0.06817
-0.0658215
-0.0633615
-0.0607858
-0.0580914
-0.0552762
-0.0523402
-0.049287
-0.0461245
-0.0428668
-0.0395355
-0.0361612
-0.032784
-0.0294497
-0.0262065
-0.0231006
-0.0201719
-0.0174526
-0.0149665
-0.0127327
-0.0107682
-0.00908675
-0.00768986
-0.00655968
-0.00566223
-0.00496414
-0.00443712
-0.00405894
-0.00380278
-0.00363797
-0.00352781
-0.0034453
-0.00336916
-0.00329297
-0.00320692
-0.00310994
-0.00299019
-0.00285021
-0.00267886
-0.00248766
-0.00226369
-0.002027
-0.00175641
-0.00148506
-0.00117511
-0.000882249
-0.000538257
-0.000244358
-0.0638089
-0.0704301
-0.0759015
-0.0801175
-0.0832017
-0.0854647
-0.0872479
-0.0887902
-0.0901994
-0.0914931
-0.0926513
-0.0936534
-0.0944932
-0.0951762
-0.0957124
-0.0961098
-0.0963719
-0.0964986
-0.0964878
-0.0963378
-0.0960483
-0.0956208
-0.0950583
-0.0943657
-0.0935482
-0.0926117
-0.091562
-0.0904049
-0.0891458
-0.0877897
-0.0863406
-0.0848019
-0.0831758
-0.0814641
-0.0796676
-0.077787
-0.0758228
-0.0737754
-0.0716452
-0.0694331
-0.0671399
-0.064767
-0.062316
-0.0597895
-0.0571906
-0.0545235
-0.0517927
-0.0490032
-0.0461609
-0.0432725
-0.0403463
-0.0373939
-0.0344319
-0.031485
-0.0285882
-0.0257865
-0.0231296
-0.0206618
-0.0184107
-0.0163813
-0.0145613
-0.0129383
-0.0115186
-0.0103235
-0.00936304
-0.00861445
-0.00802423
-0.00753483
-0.00711447
-0.00675779
-0.00646339
-0.00621752
-0.00599254
-0.00576207
-0.0055083
-0.00522813
-0.00492497
-0.0046092
-0.00428496
-0.00395774
-0.00362327
-0.00328463
-0.0029339
-0.0025784
-0.00220662
-0.00183428
-0.0014397
-0.00105614
-0.000636148
-0.000258392
-0.0592889
-0.0655606
-0.0710225
-0.0755786
-0.0792352
-0.0821256
-0.08446
-0.0864388
-0.0881945
-0.0897859
-0.0912205
-0.0924849
-0.0935656
-0.0944573
-0.0951621
-0.0956847
-0.0960287
-0.0961957
-0.0961858
-0.0959991
-0.0956377
-0.0951056
-0.0944086
-0.0935539
-0.0925498
-0.0914046
-0.090127
-0.0887257
-0.0872095
-0.0855863
-0.0838628
-0.0820448
-0.0801365
-0.0781412
-0.0760613
-0.0738993
-0.0716573
-0.0693381
-0.0669452
-0.0644827
-0.0619559
-0.0593709
-0.0567348
-0.0540558
-0.0513439
-0.0486101
-0.045867
-0.0431271
-0.0404023
-0.0377024
-0.0350354
-0.0324089
-0.0298316
-0.0273161
-0.0248841
-0.0225741
-0.02044
-0.0185332
-0.0168786
-0.0154514
-0.0141916
-0.013047
-0.0120129
-0.0111216
-0.0104011
-0.00984352
-0.00939105
-0.00896675
-0.00852721
-0.0080771
-0.00764243
-0.00724058
-0.00686891
-0.00651577
-0.00616864
-0.00581626
-0.00545158
-0.00507542
-0.00469083
-0.0043026
-0.00391118
-0.0035188
-0.0031229
-0.00272607
-0.00232322
-0.0019194
-0.00150534
-0.00109414
-0.00066194
-0.000254127
-0.0557074
-0.0617762
-0.067219
-0.0719578
-0.0759692
-0.079307
-0.0820928
-0.0844724
-0.0865665
-0.088447
-0.0901401
-0.0916433
-0.0929436
-0.0940295
-0.0948953
-0.0955397
-0.0959635
-0.0961675
-0.0961526
-0.0959206
-0.0954761
-0.0948269
-0.0939832
-0.0929561
-0.0917569
-0.0903967
-0.0888872
-0.08724
-0.0854667
-0.0835778
-0.0815832
-0.079491
-0.0773078
-0.0750389
-0.0726886
-0.070261
-0.0677605
-0.0651922
-0.0625628
-0.0598804
-0.0571552
-0.0543986
-0.0516234
-0.0488429
-0.0460713
-0.0433253
-0.0406248
-0.0379908
-0.0354396
-0.032981
-0.0306187
-0.028354
-0.0261869
-0.0241155
-0.0221376
-0.0202724
-0.0185667
-0.0170776
-0.015844
-0.0148268
-0.0139368
-0.0131012
-0.0123016
-0.0115557
-0.0108769
-0.0102932
-0.00979938
-0.00934938
-0.00891031
-0.00848705
-0.00807159
-0.00765379
-0.00722961
-0.00679939
-0.00636536
-0.00593346
-0.00550994
-0.00509774
-0.00469459
-0.00429924
-0.00390853
-0.00351954
-0.00312861
-0.00273485
-0.00233554
-0.00193144
-0.00151899
-0.00110185
-0.000673586
-0.000258708
-0.0528315
-0.0587971
-0.064232
-0.0690704
-0.0732919
-0.076929
-0.0800585
-0.0827794
-0.0851851
-0.0873421
-0.0892832
-0.0910138
-0.0925234
-0.0937972
-0.0948226
-0.0955914
-0.0960995
-0.096345
-0.0963278
-0.0960504
-0.0955195
-0.0947471
-0.0937499
-0.0925447
-0.0911474
-0.0895727
-0.0878351
-0.0859495
-0.0839304
-0.0817916
-0.0795457
-0.0772035
-0.0747743
-0.0722655
-0.0696836
-0.0670349
-0.064326
-0.0615646
-0.0587603
-0.0559254
-0.0530748
-0.0502266
-0.0473999
-0.0446132
-0.041881
-0.0392189
-0.0366515
-0.0342029
-0.0318874
-0.0297068
-0.0276534
-0.0257193
-0.0238994
-0.0221894
-0.0205918
-0.0191029
-0.0177389
-0.0165321
-0.0154846
-0.0145787
-0.0137832
-0.0130663
-0.0124192
-0.0118413
-0.0113319
-0.010819
-0.0102563
-0.00965193
-0.00905707
-0.00850152
-0.00799721
-0.00754571
-0.00712956
-0.00672782
-0.00632805
-0.00592598
-0.00552164
-0.00511696
-0.00471569
-0.00431832
-0.00392338
-0.00352935
-0.00313443
-0.00273728
-0.00233593
-0.00192976
-0.00151704
-0.00109944
-0.000679269
-0.000255227
-0.0504688
-0.0564114
-0.0618509
-0.0667431
-0.0710884
-0.0749249
-0.0783128
-0.0813199
-0.0840099
-0.0864331
-0.088619
-0.0905752
-0.0922927
-0.0937546
-0.0949427
-0.0958419
-0.0964418
-0.0967364
-0.0967245
-0.0964093
-0.0957995
-0.0949098
-0.0937637
-0.092385
-0.0907966
-0.0890202
-0.087076
-0.0849835
-0.0827608
-0.0804244
-0.0779889
-0.0754668
-0.0728685
-0.070203
-0.0674781
-0.0647014
-0.061881
-0.0590259
-0.0561478
-0.0532606
-0.0503821
-0.0475338
-0.0447403
-0.0420258
-0.0394073
-0.0369043
-0.0345376
-0.0323193
-0.0302477
-0.0283102
-0.0264842
-0.0247456
-0.0230887
-0.0215347
-0.0201205
-0.0188859
-0.0178498
-0.016987
-0.0161846
-0.0153355
-0.0144128
-0.0134577
-0.012565
-0.0118063
-0.0111668
-0.0106126
-0.0100951
-0.00957804
-0.00906303
-0.00856064
-0.00808559
-0.00763789
-0.00720701
-0.00678422
-0.00636513
-0.00594924
-0.00553775
-0.00513087
-0.00472788
-0.00432836
-0.00393113
-0.00353469
-0.00313745
-0.00273817
-0.00233551
-0.00192824
-0.00151526
-0.00109918
-0.000684266
-0.000251892
-0.0489601
-0.0548698
-0.0602768
-0.0651727
-0.069582
-0.0735456
-0.0771136
-0.0803353
-0.083253
-0.0859011
-0.0883
-0.0904536
-0.0923525
-0.0939785
-0.0953096
-0.0963249
-0.0970078
-0.0973478
-0.0973416
-0.0969942
-0.0963183
-0.0953324
-0.0940584
-0.0925247
-0.0907639
-0.0888084
-0.0866885
-0.084431
-0.0820589
-0.0795915
-0.0770442
-0.0744297
-0.0717579
-0.069037
-0.0662738
-0.063475
-0.0606477
-0.0578001
-0.0549426
-0.0520883
-0.0492542
-0.0464614
-0.0437361
-0.041109
-0.0386155
-0.0362876
-0.0341431
-0.0321812
-0.0303793
-0.0286972
-0.0270878
-0.0254913
-0.0238809
-0.0222661
-0.0206957
-0.0192389
-0.0179641
-0.0168715
-0.0159187
-0.0150482
-0.0142127
-0.0134078
-0.0126514
-0.0119612
-0.0113463
-0.0107744
-0.0102167
-0.00966524
-0.00912599
-0.0086096
-0.00812252
-0.00766212
-0.00722245
-0.0067961
-0.00637739
-0.00596332
-0.00555288
-0.00514607
-0.00474269
-0.00434212
-0.0039433
-0.00354496
-0.00314578
-0.00274465
-0.0023405
-0.00193222
-0.0015192
-0.00110383
-0.000688651
-0.000251341
-0.0480587
-0.0539872
-0.059396
-0.0643115
-0.0687737
-0.0728257
-0.0765118
-0.079876
-0.0829558
-0.0857736
-0.0883378
-0.0906443
-0.0926794
-0.0944233
-0.0958533
-0.096948
-0.0976901
-0.0980692
-0.0980828
-0.0977374
-0.0970485
-0.096039
-0.0947376
-0.0931763
-0.0913884
-0.089407
-0.087263
-0.0849845
-0.0825954
-0.080116
-0.0775623
-0.0749473
-0.0722811
-0.0695715
-0.0668254
-0.0640489
-0.0612482
-0.0584305
-0.0556045
-0.0527814
-0.0499754
-0.0472046
-0.0444907
-0.041859
-0.039336
-0.0369452
-0.0347028
-0.032613
-0.0306675
-0.0288513
-0.0271279
-0.0254434
-0.0238004
-0.0222099
-0.0207107
-0.0193509
-0.0181554
-0.0171175
-0.0161779
-0.015277
-0.0143916
-0.0135327
-0.0127328
-0.0120149
-0.0113719
-0.010781
-0.0102172
-0.00966962
-0.00913989
-0.00863337
-0.00815223
-0.00769383
-0.00725246
-0.00682262
-0.00640062
-0.00598457
-0.00557355
-0.00516695
-0.00476404
-0.00436388
-0.00396529
-0.00356695
-0.00316758
-0.00276608
-0.00236151
-0.00195311
-0.00154033
-0.00112353
-0.000702027
-0.000257451
)
;

boundaryField
{
    fixedWalls
    {
        type            zeroGradient;
    }
    inflowWall
    {
        type            zeroGradient;
    }
    outflowWall
    {
        type            fixedValue;
        value           uniform 0;
    }
    frontAndBack
    {
        type            empty;
    }
}


// ************************************************************************* //
