/*--------------------------------*- C++ -*----------------------------------*\
| =========                 |                                                 |
| \\      /  F ield         | OpenFOAM: The Open Source CFD Toolbox           |
|  \\    /   O peration     | Version:  2306                                  |
|   \\  /    A nd           | Website:  www.openfoam.com                      |
|    \\/     M anipulation  |                                                 |
\*---------------------------------------------------------------------------*/
FoamFile
{
    version     2.0;
    format      ascii;
    arch        "LSB;label=32;scalar=64";
    class       volVectorField;
    location    "0.18";
    object      U;
}
// * * * * * * * * * * * * * * * * * * * * * * * * * * * * * * * * * * * * * //

dimensions      [0 1 -1 0 0 0 0];

internalField   nonuniform List<vector> 
47500
(
(0.708058 0.141126 0)
(0.605107 0.126852 0)
(0.442238 0.0756733 0)
(0.323205 0.0428889 0)
(0.252628 0.0249084 0)
(0.207936 0.0151468 0)
(0.177257 0.00977785 0)
(0.155189 0.00671786 0)
(0.138693 0.00487346 0)
(0.125941 0.00368952 0)
(0.115824 0.00288361 0)
(0.107639 0.00230728 0)
(0.100917 0.00187857 0)
(0.0953331 0.00154964 0)
(0.0906526 0.00129102 0)
(0.0867022 0.00108364 0)
(0.0833504 0.000914624 0)
(0.0804957 0.000774966 0)
(0.0780586 0.000658193 0)
(0.0759755 0.000559537 0)
(0.0741951 0.000475412 0)
(0.0726759 0.000403069 0)
(0.0713834 0.000340369 0)
(0.0702894 0.000285621 0)
(0.0693702 0.000237463 0)
(0.068606 0.000194788 0)
(0.0679805 0.000156681 0)
(0.0674797 0.000122373 0)
(0.0670923 9.12081e-05 0)
(0.0668089 6.26158e-05 0)
(0.0666219 3.60878e-05 0)
(0.0665255 1.11563e-05 0)
(0.0665153 -1.26185e-05 0)
(0.0665889 -3.56627e-05 0)
(0.0667451 -5.84143e-05 0)
(0.0669849 -8.13497e-05 0)
(0.0673113 -0.000105011 0)
(0.0677301 -0.00013007 0)
(0.0682506 -0.000157428 0)
(0.0688873 -0.000188426 0)
(0.0696623 -0.000225333 0)
(0.07061 -0.000272606 0)
(0.071787 -0.000340274 0)
(0.0732932 -0.000453301 0)
(0.0753177 -0.000677394 0)
(0.0782368 -0.00118916 0)
(0.0829204 -0.00247219 0)
(0.0918016 -0.00592316 0)
(0.110552 -0.015812 0)
(0.145495 -0.0449473 0)
(0.990012 0.273751 0)
(0.981277 0.298007 0)
(0.863903 0.216089 0)
(0.734143 0.146999 0)
(0.62832 0.100193 0)
(0.545478 0.0697708 0)
(0.480661 0.0501599 0)
(0.429788 0.0373103 0)
(0.389457 0.0286157 0)
(0.357041 0.0225128 0)
(0.330634 0.018077 0)
(0.308866 0.014752 0)
(0.290737 0.0121932 0)
(0.275513 0.01018 0)
(0.262638 0.00856628 0)
(0.251692 0.00725209 0)
(0.242345 0.00616724 0)
(0.234342 0.0052611 0)
(0.227475 0.00449634 0)
(0.22158 0.00384492 0)
(0.21652 0.00328536 0)
(0.212186 0.00280101 0)
(0.208484 0.00237869 0)
(0.205339 0.00200787 0)
(0.202685 0.00167998 0)
(0.20047 0.00138797 0)
(0.198648 0.00112593 0)
(0.197181 0.000888843 0)
(0.196038 0.000672348 0)
(0.195193 0.000472584 0)
(0.194625 0.000286033 0)
(0.19432 0.000109378 0)
(0.194265 -6.06347e-05 0)
(0.194456 -0.000227351 0)
(0.194889 -0.000394415 0)
(0.195572 -0.000566046 0)
(0.196514 -0.00074743 0)
(0.197739 -0.000945375 0)
(0.199278 -0.00116938 0)
(0.201184 -0.00143352 0)
(0.203532 -0.0017601 0)
(0.206441 -0.00218675 0)
(0.210095 -0.0027815 0)
(0.214786 -0.0036755 0)
(0.220995 -0.00513616 0)
(0.229506 -0.00772784 0)
(0.241635 -0.0126623 0)
(0.259686 -0.0226078 0)
(0.286576 -0.0434597 0)
(0.32065 -0.0856264 0)
(1.02873 0.230537 0)
(1.06518 0.337272 0)
(1.02857 0.307935 0)
(0.952112 0.249931 0)
(0.866775 0.194721 0)
(0.785962 0.15009 0)
(0.714443 0.116323 0)
(0.653203 0.0913155 0)
(0.601488 0.072758 0)
(0.557969 0.0588152 0)
(0.521297 0.0481657 0)
(0.490285 0.039888 0)
(0.463947 0.0333441 0)
(0.441485 0.0280894 0)
(0.422254 0.0238099 0)
(0.405736 0.0202805 0)
(0.391515 0.0173367 0)
(0.37925 0.0148567 0)
(0.368662 0.0127483 0)
(0.359523 0.0109411 0)
(0.351644 0.00938042 0)
(0.344864 0.008023 0)
(0.339051 0.00683442 0)
(0.334094 0.00578677 0)
(0.329897 0.0048572 0)
(0.326381 0.00402666 0)
(0.323478 0.00327912 0)
(0.321131 0.00260076 0)
(0.319294 0.00197953 0)
(0.317927 0.00140461 0)
(0.317 0.000866013 0)
(0.316489 0.000354231 0)
(0.316378 -0.00014022 0)
(0.316658 -0.000627268 0)
(0.31733 -0.00111789 0)
(0.318401 -0.00162497 0)
(0.319894 -0.00216451 0)
(0.321841 -0.00275759 0)
(0.324298 -0.00343339 0)
(0.327344 -0.00423434 0)
(0.331095 -0.00522499 0)
(0.335723 -0.00650772 0)
(0.341476 -0.00825125 0)
(0.348716 -0.0107431 0)
(0.357967 -0.0144861 0)
(0.369946 -0.0203673 0)
(0.385566 -0.0299304 0)
(0.4058 -0.0457803 0)
(0.4307 -0.0719921 0)
(0.456409 -0.11276 0)
(1.02485 0.170713 0)
(1.0701 0.31458 0)
(1.08052 0.338862 0)
(1.05259 0.31134 0)
(1.00162 0.267048 0)
(0.941438 0.222038 0)
(0.880407 0.18251 0)
(0.822878 0.149852 0)
(0.770724 0.123531 0)
(0.724428 0.102474 0)
(0.683791 0.0855975 0)
(0.648321 0.0719852 0)
(0.617438 0.0609099 0)
(0.590572 0.0518129 0)
(0.567198 0.0442694 0)
(0.546858 0.0379565 0)
(0.529153 0.0326277 0)
(0.513743 0.0280934 0)
(0.500337 0.0242061 0)
(0.488688 0.0208504 0)
(0.478585 0.0179344 0)
(0.469849 0.0153846 0)
(0.462324 0.0131416 0)
(0.45588 0.0111563 0)
(0.450405 0.00938822 0)
(0.445801 0.00780323 0)
(0.441986 0.00637224 0)
(0.438892 0.00507002 0)
(0.436461 0.00387428 0)
(0.434644 0.00276486 0)
(0.433403 0.00172299 0)
(0.432709 0.0007306 0)
(0.432542 -0.000230478 0)
(0.432892 -0.00117937 0)
(0.43376 -0.00213733 0)
(0.435156 -0.00312927 0)
(0.437107 -0.004186 0)
(0.439657 -0.00534754 0)
(0.442869 -0.0066682 0)
(0.446837 -0.00822463 0)
(0.451691 -0.0101287 0)
(0.457613 -0.0125482 0)
(0.464844 -0.0157406 0)
(0.473705 -0.0201068 0)
(0.484594 -0.0262737 0)
(0.497948 -0.0352083 0)
(0.51413 -0.0483395 0)
(0.533133 -0.0676046 0)
(0.553847 -0.0951705 0)
(0.572857 -0.131914 0)
(1.01676 0.128188 0)
(1.05701 0.275118 0)
(1.08731 0.331706 0)
(1.09071 0.333617 0)
(1.07009 0.308318 0)
(1.03427 0.272655 0)
(0.990738 0.235654 0)
(0.944691 0.201448 0)
(0.899386 0.17149 0)
(0.856633 0.145943 0)
(0.817297 0.12442 0)
(0.781672 0.106359 0)
(0.749729 0.0911921 0)
(0.721274 0.0784138 0)
(0.696036 0.0675965 0)
(0.673721 0.0583889 0)
(0.654039 0.0505067 0)
(0.636717 0.0437203 0)
(0.621506 0.0378442 0)
(0.608182 0.0327285 0)
(0.596547 0.0282507 0)
(0.586425 0.0243106 0)
(0.577662 0.0208253 0)
(0.570124 0.0177255 0)
(0.563691 0.014953 0)
(0.558264 0.0124581 0)
(0.553753 0.0101978 0)
(0.550083 0.00813448 0)
(0.54719 0.0062345 0)
(0.545022 0.00446715 0)
(0.543537 0.00280356 0)
(0.542701 0.00121574 0)
(0.542492 -0.000324637 0)
(0.5429 -0.00184743 0)
(0.543924 -0.00338578 0)
(0.545577 -0.00497827 0)
(0.547885 -0.00667198 0)
(0.550894 -0.00852693 0)
(0.554668 -0.0106225 0)
(0.559299 -0.0130668 0)
(0.564908 -0.0160111 0)
(0.57165 -0.0196704 0)
(0.579718 -0.024354 0)
(0.589333 -0.0305063 0)
(0.600718 -0.0387591 0)
(0.614027 -0.0499804 0)
(0.629211 -0.0652816 0)
(0.645775 -0.0858984 0)
(0.662395 -0.112782 0)
(0.676608 -0.145571 0)
(1.01072 0.0991315 0)
(1.04301 0.235169 0)
(1.07861 0.30702 0)
(1.09883 0.33072 0)
(1.09974 0.324344 0)
(1.08498 0.301814 0)
(1.05947 0.272327 0)
(1.02764 0.241308 0)
(0.992878 0.211621 0)
(0.957577 0.18456 0)
(0.923255 0.160544 0)
(0.890807 0.139536 0)
(0.860703 0.121291 0)
(0.833138 0.105492 0)
(0.808132 0.0918101 0)
(0.785607 0.0799437 0)
(0.76543 0.0696241 0)
(0.74744 0.0606204 0)
(0.731467 0.0527362 0)
(0.717345 0.0458056 0)
(0.704915 0.0396886 0)
(0.694027 0.0342673 0)
(0.684545 0.0294415 0)
(0.676347 0.0251257 0)
(0.669323 0.0212467 0)
(0.663375 0.0177409 0)
(0.658416 0.0145525 0)
(0.654372 0.0116319 0)
(0.65118 0.00893431 0)
(0.648785 0.0064183 0)
(0.647145 0.00404458 0)
(0.646226 0.00177479 0)
(0.646004 -0.00043001 0)
(0.646468 -0.00261091 0)
(0.647616 -0.00481324 0)
(0.64946 -0.00708926 0)
(0.652023 -0.00950167 0)
(0.655347 -0.0121286 0)
(0.659487 -0.0150706 0)
(0.664522 -0.0184596 0)
(0.670545 -0.0224725 0)
(0.677672 -0.0273486 0)
(0.686023 -0.0334113 0)
(0.695714 -0.0410936 0)
(0.70681 -0.0509598 0)
(0.719257 -0.0637079 0)
(0.732775 -0.080118 0)
(0.74671 -0.100893 0)
(0.759886 -0.12632 0)
(0.770644 -0.155682 0)
(1.00696 0.0787058 0)
(1.03212 0.199737 0)
(1.0665 0.276239 0)
(1.09406 0.313696 0)
(1.10825 0.322643 0)
(1.10913 0.313165 0)
(1.09907 0.293157 0)
(1.08101 0.268127 0)
(1.0578 0.24158 0)
(1.03174 0.21557 0)
(1.00457 0.19118 0)
(0.977511 0.168894 0)
(0.951367 0.148844 0)
(0.92664 0.130969 0)
(0.903611 0.115113 0)
(0.882413 0.101079 0)
(0.863079 0.0886642 0)
(0.845579 0.0776746 0)
(0.829844 0.0679315 0)
(0.815781 0.0592753 0)
(0.80329 0.0515647 0)
(0.792265 0.0446761 0)
(0.782601 0.0385011 0)
(0.774201 0.0329447 0)
(0.766971 0.0279235 0)
(0.760827 0.0233636 0)
(0.755692 0.0191988 0)
(0.751499 0.0153695 0)
(0.748188 0.0118209 0)
(0.74571 0.00850175 0)
(0.744023 0.00536308 0)
(0.743095 0.00235661 0)
(0.742902 -0.000566747 0)
(0.743433 -0.00345874 0)
(0.744684 -0.00637607 0)
(0.746664 -0.00938326 0)
(0.749391 -0.0125564 0)
(0.752896 -0.015988 0)
(0.757225 -0.0197935 0)
(0.76243 -0.0241196 0)
(0.768577 -0.0291544 0)
(0.77573 -0.0351406 0)
(0.783944 -0.042388 0)
(0.793241 -0.0512849 0)
(0.803571 -0.0622986 0)
(0.814756 -0.0759521 0)
(0.826422 -0.0927549 0)
(0.837923 -0.113059 0)
(0.848321 -0.136826 0)
(0.856512 -0.163318 0)
(1.00471 0.0639285 0)
(1.02437 0.169811 0)
(1.05518 0.244954 0)
(1.08471 0.289744 0)
(1.1061 0.309616 0)
(1.11748 0.311211 0)
(1.11927 0.300614 0)
(1.11301 0.282685 0)
(1.10065 0.260959 0)
(1.08407 0.237824 0)
(1.06489 0.214789 0)
(1.04438 0.192746 0)
(1.02352 0.172164 0)
(1.00298 0.153247 0)
(0.983235 0.136035 0)
(0.964583 0.120473 0)
(0.947206 0.106455 0)
(0.931197 0.0938534 0)
(0.91659 0.0825319 0)
(0.903373 0.0723575 0)
(0.89151 0.0632041 0)
(0.880948 0.0549552 0)
(0.871625 0.0475045 0)
(0.863473 0.0407554 0)
(0.856426 0.0346201 0)
(0.850418 0.0290192 0)
(0.845388 0.02388 0)
(0.841281 0.0191356 0)
(0.838045 0.0147233 0)
(0.835639 0.0105841 0)
(0.834025 0.00666051 0)
(0.833174 0.00289576 0)
(0.833066 -0.000768122 0)
(0.833688 -0.00439214 0)
(0.835034 -0.00804261 0)
(0.837109 -0.011794 0)
(0.839926 -0.0157326 0)
(0.843505 -0.0199606 0)
(0.847873 -0.024602 0)
(0.853062 -0.0298089 0)
(0.859103 -0.035769 0)
(0.866019 -0.0427129 0)
(0.873806 -0.0509205 0)
(0.882418 -0.0607208 0)
(0.891733 -0.0724812 0)
(0.901516 -0.0865745 0)
(0.911375 -0.103313 0)
(0.920745 -0.122837 0)
(0.928907 -0.144969 0)
(0.935115 -0.169061 0)
(1.00335 0.0528701 0)
(1.01892 0.144904 0)
(1.04573 0.215619 0)
(1.0745 0.263235 0)
(1.09913 0.29007 0)
(1.11694 0.300131 0)
(1.12715 0.29775 0)
(1.13019 0.286844 0)
(1.12712 0.270588 0)
(1.11929 0.251371 0)
(1.10799 0.230887 0)
(1.09439 0.210273 0)
(1.07942 0.190255 0)
(1.06385 0.17126 0)
(1.04824 0.153514 0)
(1.033 0.137108 0)
(1.01842 0.122049 0)
(1.0047 0.10829 0)
(0.991963 0.0957558 0)
(0.980266 0.0843543 0)
(0.96964 0.0739885 0)
(0.960085 0.0645607 0)
(0.951583 0.0559759 0)
(0.944104 0.0481437 0)
(0.93761 0.0409789 0)
(0.932059 0.0344014 0)
(0.92741 0.0283363 0)
(0.923623 0.0227127 0)
(0.920658 0.0174631 0)
(0.918484 0.0125228 0)
(0.91707 0.00782821 0)
(0.916392 0.00331575 0)
(0.916433 -0.0010795 0)
(0.917181 -0.00542579 0)
(0.918628 -0.00979676 0)
(0.920777 -0.014274 0)
(0.923631 -0.0189504 0)
(0.927201 -0.0239332 0)
(0.931498 -0.0293492 0)
(0.936532 -0.0353485 0)
(0.942306 -0.0421094 0)
(0.948805 -0.0498419 0)
(0.955987 -0.058788 0)
(0.96376 -0.0692161 0)
(0.971964 -0.0814045 0)
(0.980348 -0.0956086 0)
(0.988547 -0.112006 0)
(0.996088 -0.13062 0)
(1.00243 -0.151226 0)
(1.00705 -0.173288 0)
(1.00249 0.0443072 0)
(1.01505 0.124157 0)
(1.03815 0.18909 0)
(1.06495 0.236616 0)
(1.09042 0.267279 0)
(1.11174 0.283263 0)
(1.12753 0.287447 0)
(1.13745 0.28278 0)
(1.14186 0.271903 0)
(1.14156 0.256988 0)
(1.13746 0.239719 0)
(1.13049 0.221335 0)
(1.12149 0.202711 0)
(1.11118 0.184436 0)
(1.10015 0.166888 0)
(1.08885 0.150287 0)
(1.07765 0.134749 0)
(1.0668 0.120313 0)
(1.05648 0.106971 0)
(1.04684 0.0946813 0)
(1.03796 0.083385 0)
(1.02987 0.0730116 0)
(1.02261 0.0634854 0)
(1.01618 0.054729 0)
(1.01057 0.0466654 0)
(1.00578 0.0392191 0)
(1.00177 0.0323169 0)
(0.998522 0.0258878 0)
(0.996018 0.0198625 0)
(0.994233 0.0141733 0)
(0.993146 0.00875271 0)
(0.99274 0.00353295 0)
(0.993001 -0.00155579 0)
(0.993919 -0.00658664 0)
(0.995487 -0.011638 0)
(0.997702 -0.0167958 0)
(1.00056 -0.0221556 0)
(1.00407 -0.0278263 0)
(1.00822 -0.033932 0)
(1.01301 -0.0406159 0)
(1.01841 -0.0480416 0)
(1.02439 -0.0563942 0)
(1.03087 -0.0658769 0)
(1.03775 -0.0767026 0)
(1.04484 -0.0890765 0)
(1.0519 -0.103168 0)
(1.05861 -0.119067 0)
(1.06459 -0.136733 0)
(1.06942 -0.155945 0)
(1.07274 -0.176265 0)
(1.00193 0.0374793 0)
(1.01223 0.106745 0)
(1.03212 0.165478 0)
(1.05656 0.211132 0)
(1.08152 0.243324 0)
(1.10441 0.263051 0)
(1.12361 0.272099 0)
(1.13833 0.272563 0)
(1.14845 0.266515 0)
(1.15429 0.255805 0)
(1.15641 0.241978 0)
(1.15546 0.226256 0)
(1.15211 0.209573 0)
(1.14699 0.192609 0)
(1.14064 0.175847 0)
(1.13351 0.15961 0)
(1.12599 0.144106 0)
(1.11837 0.129453 0)
(1.11088 0.115708 0)
(1.10368 0.102884 0)
(1.09692 0.0909635 0)
(1.09066 0.079908 0)
(1.08499 0.0696663 0)
(1.07992 0.0601791 0)
(1.07549 0.0513821 0)
(1.07171 0.0432087 0)
(1.06857 0.0355913 0)
(1.06607 0.0284619 0)
(1.0642 0.0217527 0)
(1.06295 0.0153954 0)
(1.06231 0.00932161 0)
(1.06227 0.00346128 0)
(1.06283 -0.00225775 0)
(1.06396 -0.0079111 0)
(1.06568 -0.0135794 0)
(1.06797 -0.0193499 0)
(1.07083 -0.0253183 0)
(1.07424 -0.0315911 0)
(1.07821 -0.0382868 0)
(1.08269 -0.0455379 0)
(1.08767 -0.0534911 0)
(1.09308 -0.0623055 0)
(1.09884 -0.0721482 0)
(1.10481 -0.0831848 0)
(1.11084 -0.0955637 0)
(1.11669 -0.109392 0)
(1.12209 -0.124707 0)
(1.12674 -0.141439 0)
(1.1303 -0.159382 0)
(1.13252 -0.178187 0)
(1.00154 0.0319028 0)
(1.01014 0.0919918 0)
(1.02733 0.14458 0)
(1.04939 0.187339 0)
(1.07314 0.21945 0)
(1.09635 0.241187 0)
(1.11741 0.253555 0)
(1.1353 0.257965 0)
(1.14958 0.255967 0)
(1.16022 0.249057 0)
(1.16747 0.238573 0)
(1.17174 0.225645 0)
(1.17349 0.211188 0)
(1.17323 0.195915 0)
(1.17141 0.180366 0)
(1.16845 0.164933 0)
(1.1647 0.149893 0)
(1.16048 0.135431 0)
(1.15602 0.12166 0)
(1.15152 0.108644 0)
(1.14713 0.0964066 0)
(1.14297 0.0849424 0)
(1.13913 0.0742272 0)
(1.13568 0.0642225 0)
(1.13266 0.0548801 0)
(1.1301 0.0461452 0)
(1.12802 0.0379589 0)
(1.12643 0.0302591 0)
(1.12535 0.0229817 0)
(1.12476 0.016061 0)
(1.12468 0.00942946 0)
(1.1251 0.00301735 0)
(1.12602 -0.00324758 0)
(1.12743 -0.0094412 0)
(1.12933 -0.0156439 0)
(1.13171 -0.0219419 0)
(1.13457 -0.0284285 0)
(1.13788 -0.0352052 0)
(1.14164 -0.0423825 0)
(1.14581 -0.0500806 0)
(1.15034 -0.0584283 0)
(1.15517 -0.0675603 0)
(1.16021 -0.0776119 0)
(1.16533 -0.0887101 0)
(1.17037 -0.10096 0)
(1.17513 -0.114428 0)
(1.17939 -0.129116 0)
(1.18288 -0.144945 0)
(1.18536 -0.161734 0)
(1.18665 -0.179201 0)
(1.00126 0.0272577 0)
(1.00854 0.0793599 0)
(1.0235 0.126086 0)
(1.04334 0.165412 0)
(1.06559 0.196362 0)
(1.08837 0.218789 0)
(1.1102 0.233174 0)
(1.13002 0.240412 0)
(1.14719 0.241609 0)
(1.16144 0.237928 0)
(1.17279 0.230476 0)
(1.18141 0.220247 0)
(1.18759 0.208089 0)
(1.1917 0.194699 0)
(1.19408 0.180632 0)
(1.19509 0.166318 0)
(1.19505 0.152077 0)
(1.19422 0.138141 0)
(1.19286 0.124673 0)
(1.19116 0.111775 0)
(1.1893 0.0995094 0)
(1.1874 0.0879027 0)
(1.18557 0.0769569 0)
(1.1839 0.0666551 0)
(1.18245 0.0569663 0)
(1.18127 0.0478497 0)
(1.1804 0.0392567 0)
(1.17987 0.0311332 0)
(1.17969 0.0234213 0)
(1.17988 0.0160595 0)
(1.18045 0.00898338 0)
(1.1814 0.0021256 0)
(1.18274 -0.00458423 0)
(1.18447 -0.0112201 0)
(1.18659 -0.0178603 0)
(1.18909 -0.0245878 0)
(1.19196 -0.0314914 0)
(1.19518 -0.038666 0)
(1.19874 -0.0462128 0)
(1.20259 -0.0542389 0)
(1.20668 -0.0628558 0)
(1.21095 -0.072176 0)
(1.21531 -0.082308 0)
(1.21963 -0.0933482 0)
(1.22377 -0.10537 0)
(1.22756 -0.11841 0)
(1.23081 -0.132454 0)
(1.23331 -0.14742 0)
(1.23486 -0.163153 0)
(1.23533 -0.179424 0)
(1.00105 0.0233239 0)
(1.0073 0.0684329 0)
(1.02042 0.109673 0)
(1.03827 0.145328 0)
(1.05893 0.174415 0)
(1.08087 0.196564 0)
(1.10278 0.211917 0)
(1.12361 0.220996 0)
(1.14267 0.224557 0)
(1.15953 0.22347 0)
(1.17403 0.21862 0)
(1.18618 0.210846 0)
(1.1961 0.2009 0)
(1.20401 0.18943 0)
(1.21017 0.176977 0)
(1.21484 0.163975 0)
(1.21827 0.150769 0)
(1.22072 0.13762 0)
(1.22241 0.12472 0)
(1.22351 0.112207 0)
(1.22421 0.100172 0)
(1.22463 0.0886697 0)
(1.2249 0.0777252 0)
(1.22511 0.0673423 0)
(1.22534 0.0575074 0)
(1.22565 0.0481936 0)
(1.22609 0.0393638 0)
(1.2267 0.0309735 0)
(1.22751 0.0229718 0)
(1.22856 0.0153032 0)
(1.22984 0.00790802 0)
(1.23139 0.000722986 0)
(1.23321 -0.00631877 0)
(1.2353 -0.0132877 0)
(1.23766 -0.0202581 0)
(1.2403 -0.0273085 0)
(1.2432 -0.0345215 0)
(1.24635 -0.0419843 0)
(1.24971 -0.0497881 0)
(1.25326 -0.058027 0)
(1.25694 -0.0667965 0)
(1.26069 -0.0761896 0)
(1.26441 -0.0862927 0)
(1.26801 -0.0971782 0)
(1.27134 -0.108896 0)
(1.27427 -0.121465 0)
(1.27663 -0.134859 0)
(1.27826 -0.149002 0)
(1.27901 -0.16376 0)
(1.27876 -0.178947 0)
(1.00089 0.0199442 0)
(1.00633 0.0588854 0)
(1.01792 0.0950365 0)
(1.03402 0.126966 0)
(1.05314 0.153754 0)
(1.07404 0.174932 0)
(1.09558 0.190435 0)
(1.1168 0.200525 0)
(1.137 0.205695 0)
(1.15567 0.206571 0)
(1.17252 0.203841 0)
(1.18744 0.198189 0)
(1.20042 0.190261 0)
(1.21155 0.180635 0)
(1.221 0.169813 0)
(1.22894 0.158217 0)
(1.23557 0.146192 0)
(1.24107 0.13401 0)
(1.24565 0.121885 0)
(1.24946 0.109974 0)
(1.25267 0.0983903 0)
(1.2554 0.0872099 0)
(1.25777 0.0764787 0)
(1.25989 0.066218 0)
(1.26184 0.0564297 0)
(1.26368 0.0471005 0)
(1.26548 0.0382047 0)
(1.2673 0.0297073 0)
(1.26916 0.0215656 0)
(1.2711 0.0137309 0)
(1.27315 0.00614943 0)
(1.27533 -0.00123694 0)
(1.27765 -0.00849021 0)
(1.28013 -0.015676 0)
(1.28277 -0.0228635 0)
(1.28557 -0.0301252 0)
(1.28852 -0.037537 0)
(1.2916 -0.0451776 0)
(1.2948 -0.0531281 0)
(1.29807 -0.0614702 0)
(1.30137 -0.0702847 0)
(1.30463 -0.0796482 0)
(1.30778 -0.0896287 0)
(1.31071 -0.10028 0)
(1.31333 -0.111636 0)
(1.31549 -0.123702 0)
(1.31708 -0.136448 0)
(1.31795 -0.149803 0)
(1.31799 -0.163655 0)
(1.31711 -0.177849 0)
(1.00077 0.0170026 0)
(1.00555 0.0504609 0)
(1.01588 0.0819085 0)
(1.03048 0.110161 0)
(1.04816 0.134396 0)
(1.06794 0.154119 0)
(1.08886 0.169148 0)
(1.11006 0.179576 0)
(1.13085 0.185698 0)
(1.15069 0.187953 0)
(1.16924 0.186857 0)
(1.18628 0.182956 0)
(1.2017 0.176786 0)
(1.21551 0.168849 0)
(1.22776 0.159595 0)
(1.23855 0.149414 0)
(1.24801 0.138638 0)
(1.2563 0.127538 0)
(1.26355 0.116333 0)
(1.2699 0.10519 0)
(1.27549 0.0942368 0)
(1.28044 0.0835645 0)
(1.28486 0.0732336 0)
(1.28885 0.0632795 0)
(1.2925 0.0537173 0)
(1.29588 0.0445455 0)
(1.29905 0.0357489 0)
(1.30207 0.0273017 0)
(1.30499 0.0191695 0)
(1.30785 0.0113107 0)
(1.31068 0.00367796 0)
(1.31351 -0.00378089 0)
(1.31636 -0.0111221 0)
(1.31924 -0.0184057 0)
(1.32217 -0.0256946 0)
(1.32514 -0.0330549 0)
(1.32815 -0.0405551 0)
(1.33119 -0.0482651 0)
(1.33423 -0.0562559 0)
(1.33725 -0.064598 0)
(1.3402 -0.073359 0)
(1.34302 -0.0826014 0)
(1.34565 -0.0923783 0)
(1.34799 -0.10273 0)
(1.34996 -0.113677 0)
(1.35145 -0.125217 0)
(1.35234 -0.137318 0)
(1.35255 -0.149917 0)
(1.35196 -0.162918 0)
(1.35051 -0.176192 0)
(1.00067 0.0144112 0)
(1.00492 0.0429546 0)
(1.01421 0.0700532 0)
(1.02752 0.0947348 0)
(1.04391 0.116283 0)
(1.06259 0.134221 0)
(1.08277 0.148313 0)
(1.10367 0.158541 0)
(1.12467 0.165065 0)
(1.14522 0.168178 0)
(1.16495 0.16826 0)
(1.18356 0.165734 0)
(1.20089 0.161035 0)
(1.21685 0.154585 0)
(1.23143 0.146777 0)
(1.24465 0.137961 0)
(1.25659 0.128443 0)
(1.26734 0.11848 0)
(1.27699 0.108287 0)
(1.28566 0.0980324 0)
(1.29346 0.0878497 0)
(1.30048 0.0778377 0)
(1.30684 0.0680663 0)
(1.31261 0.058581 0)
(1.31789 0.049407 0)
(1.32275 0.0405519 0)
(1.32725 0.0320099 0)
(1.33146 0.0237632 0)
(1.33542 0.015785 0)
(1.33918 0.00804082 0)
(1.34278 0.000489854 0)
(1.34625 -0.00691375 0)
(1.34961 -0.0142201 0)
(1.3529 -0.0214829 0)
(1.35611 -0.0287588 0)
(1.35925 -0.0361067 0)
(1.36233 -0.0435874 0)
(1.36533 -0.0512623 0)
(1.36824 -0.0591928 0)
(1.37103 -0.0674388 0)
(1.37366 -0.0760565 0)
(1.37608 -0.0850962 0)
(1.37823 -0.0945992 0)
(1.38004 -0.104594 0)
(1.38143 -0.115094 0)
(1.38232 -0.12609 0)
(1.38261 -0.137551 0)
(1.38221 -0.149421 0)
(1.38107 -0.161615 0)
(1.3791 -0.174029 0)
(1.0006 0.0121014 0)
(1.00441 0.0362001 0)
(1.01285 0.0592665 0)
(1.02506 0.0805081 0)
(1.04031 0.0993152 0)
(1.05797 0.115252 0)
(1.07736 0.128065 0)
(1.09782 0.137675 0)
(1.11877 0.144149 0)
(1.13969 0.147676 0)
(1.16019 0.148524 0)
(1.17994 0.147016 0)
(1.19872 0.143496 0)
(1.21639 0.138312 0)
(1.23286 0.131796 0)
(1.24812 0.124253 0)
(1.26216 0.115956 0)
(1.27503 0.107142 0)
(1.2868 0.0980105 0)
(1.29753 0.0887247 0)
(1.30731 0.0794156 0)
(1.31623 0.0701839 0)
(1.32435 0.0611037 0)
(1.33178 0.052226 0)
(1.33858 0.0435824 0)
(1.34482 0.0351874 0)
(1.35057 0.027042 0)
(1.35589 0.0191353 0)
(1.36084 0.0114471 0)
(1.36546 0.00394943 0)
(1.36979 -0.00339225 0)
(1.37386 -0.0106175 0)
(1.37772 -0.0177703 0)
(1.38138 -0.0248978 0)
(1.38486 -0.0320501 0)
(1.38817 -0.0392788 0)
(1.39131 -0.0466371 0)
(1.39428 -0.0541782 0)
(1.39706 -0.0619545 0)
(1.39964 -0.0700161 0)
(1.40197 -0.0784092 0)
(1.40402 -0.0871739 0)
(1.40574 -0.0963417 0)
(1.40707 -0.105933 0)
(1.40794 -0.115953 0)
(1.40828 -0.12639 0)
(1.40802 -0.137216 0)
(1.40709 -0.148377 0)
(1.40543 -0.159803 0)
(1.403 -0.171405 0)
(1.00054 0.0100185 0)
(1.00401 0.0300602 0)
(1.01173 0.0493708 0)
(1.02303 0.0673105 0)
(1.0373 0.0833704 0)
(1.05403 0.0971682 0)
(1.07265 0.108458 0)
(1.09261 0.117129 0)
(1.11335 0.123192 0)
(1.13441 0.126759 0)
(1.15538 0.128016 0)
(1.17592 0.127202 0)
(1.19578 0.124586 0)
(1.21477 0.120444 0)
(1.23275 0.115052 0)
(1.24966 0.108668 0)
(1.26545 0.101529 0)
(1.28012 0.0938423 0)
(1.29369 0.0857889 0)
(1.30621 0.0775193 0)
(1.31773 0.0691562 0)
(1.32831 0.0607964 0)
(1.33802 0.0525131 0)
(1.34693 0.0443587 0)
(1.35509 0.0363675 0)
(1.36259 0.0285582 0)
(1.36948 0.0209363 0)
(1.37581 0.013496 0)
(1.38166 0.00622256 0)
(1.38705 -0.000906502 0)
(1.39205 -0.00791989 0)
(1.39668 -0.0148514 0)
(1.40098 -0.0217388 0)
(1.40498 -0.028623 0)
(1.4087 -0.0355474 0)
(1.41215 -0.0425568 0)
(1.41533 -0.0496968 0)
(1.41826 -0.0570126 0)
(1.42091 -0.0645484 0)
(1.42327 -0.0723456 0)
(1.42533 -0.0804414 0)
(1.42703 -0.0888672 0)
(1.42835 -0.0976464 0)
(1.42924 -0.106792 0)
(1.42963 -0.116306 0)
(1.42948 -0.126173 0)
(1.42872 -0.136366 0)
(1.42731 -0.146837 0)
(1.42519 -0.157526 0)
(1.42232 -0.168355 0)
(1.00049 0.00811779 0)
(1.00368 0.0244196 0)
(1.01084 0.0402105 0)
(1.02138 0.0549811 0)
(1.03481 0.0683162 0)
(1.05073 0.0798918 0)
(1.06865 0.0894849 0)
(1.08808 0.0969767 0)
(1.10854 0.102345 0)
(1.12958 0.105649 0)
(1.15081 0.107014 0)
(1.17188 0.106613 0)
(1.19252 0.104649 0)
(1.2125 0.10134 0)
(1.23166 0.0969061 0)
(1.24988 0.0915594 0)
(1.26708 0.0854972 0)
(1.28323 0.0788977 0)
(1.29831 0.0719164 0)
(1.31233 0.0646863 0)
(1.32533 0.0573169 0)
(1.33733 0.0498965 0)
(1.3484 0.0424929 0)
(1.35858 0.0351561 0)
(1.36794 0.0279197 0)
(1.37653 0.0208037 0)
(1.38441 0.0138159 0)
(1.39163 0.00695381 0)
(1.39826 0.000206692 0)
(1.40433 -0.00644345 0)
(1.40991 -0.0130204 0)
(1.41501 -0.0195525 0)
(1.41969 -0.0260719 0)
(1.42397 -0.0326136 0)
(1.42788 -0.0392146 0)
(1.43142 -0.0459129 0)
(1.43463 -0.052747 0)
(1.43748 -0.0597547 0)
(1.43999 -0.0669726 0)
(1.44215 -0.074434 0)
(1.44393 -0.0821684 0)
(1.4453 -0.0901997 0)
(1.44624 -0.0985446 0)
(1.44671 -0.107211 0)
(1.44667 -0.116195 0)
(1.44606 -0.125483 0)
(1.44484 -0.135046 0)
(1.44298 -0.144843 0)
(1.44043 -0.15482 0)
(1.43717 -0.164911 0)
(1.00045 0.00636189 0)
(1.00342 0.0191798 0)
(1.01012 0.0316478 0)
(1.02005 0.0433696 0)
(1.0328 0.0540163 0)
(1.04803 0.0633233 0)
(1.06534 0.0711005 0)
(1.08428 0.0772354 0)
(1.10443 0.0816896 0)
(1.12537 0.08449 0)
(1.14671 0.0857175 0)
(1.16811 0.0854936 0)
(1.18929 0.0839676 0)
(1.20999 0.0813045 0)
(1.23004 0.0776751 0)
(1.24927 0.0732471 0)
(1.26758 0.0681792 0)
(1.28489 0.0626165 0)
(1.30118 0.0566876 0)
(1.31642 0.0505036 0)
(1.33062 0.0441575 0)
(1.34379 0.0377248 0)
(1.35598 0.0312645 0)
(1.36722 0.0248204 0)
(1.37756 0.018423 0)
(1.38706 0.0120905 0)
(1.39576 0.005831 0)
(1.40372 -0.00035636 0)
(1.41099 -0.00647991 0)
(1.41762 -0.0125542 0)
(1.42366 -0.0185989 0)
(1.42914 -0.0246378 0)
(1.43411 -0.0306979 0)
(1.4386 -0.0368085 0)
(1.44263 -0.0430005 0)
(1.44622 -0.0493058 0)
(1.4494 -0.0557562 0)
(1.45216 -0.0623827 0)
(1.45451 -0.0692144 0)
(1.45644 -0.0762779 0)
(1.45794 -0.0835957 0)
(1.45899 -0.0911851 0)
(1.45956 -0.0990571 0)
(1.45964 -0.107215 0)
(1.45918 -0.115652 0)
(1.45814 -0.124352 0)
(1.4565 -0.13329 0)
(1.45422 -0.142426 0)
(1.45127 -0.151714 0)
(1.44763 -0.161095 0)
(1.00042 0.00471879 0)
(1.00323 0.0142545 0)
(1.00957 0.0235588 0)
(1.01902 0.0323351 0)
(1.03123 0.0403339 0)
(1.0459 0.0473502 0)
(1.06269 0.0532315 0)
(1.08121 0.0578817 0)
(1.10106 0.0612591 0)
(1.12185 0.0633717 0)
(1.14322 0.0642686 0)
(1.16481 0.0640319 0)
(1.18634 0.0627667 0)
(1.20755 0.0605925 0)
(1.22823 0.0576353 0)
(1.2482 0.0540208 0)
(1.26734 0.0498696 0)
(1.28554 0.0452932 0)
(1.30275 0.0403913 0)
(1.31892 0.0352509 0)
(1.33405 0.0299453 0)
(1.34813 0.0245344 0)
(1.36119 0.0190653 0)
(1.37325 0.0135731 0)
(1.38436 0.00808205 0)
(1.39456 0.00260692 0)
(1.40389 -0.00284603 0)
(1.41241 -0.00827777 0)
(1.42017 -0.0136954 0)
(1.42721 -0.0191112 0)
(1.43359 -0.0245417 0)
(1.43933 -0.0300065 0)
(1.44449 -0.0355282 0)
(1.4491 -0.041131 0)
(1.45317 -0.0468403 0)
(1.45675 -0.052682 0)
(1.45985 -0.0586817 0)
(1.46247 -0.064864 0)
(1.46462 -0.0712517 0)
(1.4663 -0.0778647 0)
(1.46751 -0.0847196 0)
(1.46824 -0.0918279 0)
(1.46845 -0.0991956 0)
(1.46814 -0.106822 0)
(1.46728 -0.114698 0)
(1.46584 -0.122807 0)
(1.46379 -0.131124 0)
(1.46112 -0.139613 0)
(1.45779 -0.148232 0)
(1.45379 -0.156929 0)
(1.0004 0.0031604 0)
(1.00308 0.00956688 0)
(1.00917 0.0158306 0)
(1.01826 0.0217448 0)
(1.03006 0.027134 0)
(1.04431 0.0318515 0)
(1.0607 0.0357859 0)
(1.07888 0.0388635 0)
(1.09847 0.0410481 0)
(1.11911 0.0423378 0)
(1.14044 0.0427604 0)
(1.16213 0.0423671 0)
(1.18387 0.0412263 0)
(1.20541 0.0394178 0)
(1.22651 0.037027 0)
(1.24698 0.0341403 0)
(1.26669 0.030841 0)
(1.28551 0.0272069 0)
(1.30336 0.023308 0)
(1.32019 0.0192053 0)
(1.33597 0.0149505 0)
(1.35069 0.0105857 0)
(1.36436 0.00614364 0)
(1.377 0.00164865 0)
(1.38864 -0.00288301 0)
(1.39933 -0.00744212 0)
(1.40909 -0.0120257 0)
(1.41799 -0.0166363 0)
(1.42606 -0.0212809 0)
(1.43336 -0.0259705 0)
(1.43992 -0.030719 0)
(1.4458 -0.035543 0)
(1.45104 -0.0404608 0)
(1.45566 -0.0454922 0)
(1.4597 -0.0506574 0)
(1.46318 -0.0559768 0)
(1.46613 -0.0614704 0)
(1.46856 -0.0671568 0)
(1.47048 -0.0730529 0)
(1.47189 -0.079173 0)
(1.47279 -0.085528 0)
(1.47317 -0.0921244 0)
(1.47302 -0.0989638 0)
(1.47233 -0.106042 0)
(1.47108 -0.113348 0)
(1.46924 -0.120865 0)
(1.46681 -0.128567 0)
(1.46375 -0.136422 0)
(1.46006 -0.144391 0)
(1.45573 -0.152429 0)
(1.00039 0.00166139 0)
(1.00299 0.00504659 0)
(1.0089 0.00835803 0)
(1.01776 0.0114722 0)
(1.02928 0.0142833 0)
(1.04324 0.0167022 0)
(1.05935 0.0186598 0)
(1.07728 0.020109 0)
(1.09668 0.0210244 0)
(1.11719 0.021401 0)
(1.13846 0.0212513 0)
(1.16017 0.020602 0)
(1.18202 0.0194905 0)
(1.20372 0.0179609 0)
(1.22505 0.0160615 0)
(1.24582 0.013841 0)
(1.26586 0.0113467 0)
(1.28504 0.00862292 0)
(1.30327 0.00570914 0)
(1.32049 0.00263968 0)
(1.33665 -0.000556871 0)
(1.35175 -0.00385774 0)
(1.36577 -0.00724583 0)
(1.37874 -0.0107094 0)
(1.39067 -0.0142415 0)
(1.40161 -0.0178399 0)
(1.41159 -0.0215061 0)
(1.42066 -0.0252451 0)
(1.42886 -0.0290647 0)
(1.43625 -0.0329753 0)
(1.44285 -0.0369891 0)
(1.44873 -0.04112 0)
(1.45391 -0.0453827 0)
(1.45844 -0.0497926 0)
(1.46235 -0.0543656 0)
(1.46566 -0.0591168 0)
(1.46839 -0.064061 0)
(1.47057 -0.0692114 0)
(1.47221 -0.0745795 0)
(1.4733 -0.0801743 0)
(1.47387 -0.0860016 0)
(1.47389 -0.0920637 0)
(1.47337 -0.0983583 0)
(1.4723 -0.104878 0)
(1.47066 -0.111611 0)
(1.46844 -0.118537 0)
(1.46562 -0.125633 0)
(1.4622 -0.132868 0)
(1.45816 -0.140206 0)
(1.4535 -0.147607 0)
(1.00038 0.000198262 0)
(1.00294 0.000627905 0)
(1.00876 0.00104173 0)
(1.01749 0.00139531 0)
(1.02887 0.00165048 0)
(1.04267 0.00177465 0)
(1.05862 0.00174191 0)
(1.07641 0.00153366 0)
(1.09568 0.00113858 0)
(1.1161 0.000552079 0)
(1.13732 -0.000224645 0)
(1.159 -0.00118572 0)
(1.18085 -0.00232181 0)
(1.2026 -0.00362142 0)
(1.224 -0.0050719 0)
(1.24485 -0.00666053 0)
(1.265 -0.00837527 0)
(1.2843 -0.0102054 0)
(1.30265 -0.0121419 0)
(1.32 -0.0141778 0)
(1.33628 -0.0163083 0)
(1.35148 -0.0185308 0)
(1.36559 -0.0208449 0)
(1.37863 -0.0232522 0)
(1.39061 -0.0257562 0)
(1.40157 -0.0283621 0)
(1.41155 -0.0310769 0)
(1.42059 -0.0339085 0)
(1.42873 -0.0368664 0)
(1.43603 -0.0399607 0)
(1.44251 -0.0432023 0)
(1.44824 -0.0466026 0)
(1.45325 -0.0501733 0)
(1.45757 -0.0539261 0)
(1.46124 -0.0578723 0)
(1.46428 -0.0620225 0)
(1.46673 -0.0663865 0)
(1.4686 -0.0709726 0)
(1.4699 -0.0757873 0)
(1.47065 -0.0808347 0)
(1.47084 -0.0861164 0)
(1.47049 -0.0916303 0)
(1.46958 -0.0973708 0)
(1.46812 -0.103328 0)
(1.46609 -0.109488 0)
(1.46349 -0.11583 0)
(1.4603 -0.122331 0)
(1.45653 -0.128962 0)
(1.45215 -0.13569 0)
(1.44717 -0.142476 0)
(1.00038 -0.00125142 0)
(1.00293 -0.00375232 0)
(1.00874 -0.00621465 0)
(1.01746 -0.00860499 0)
(1.02882 -0.0108947 0)
(1.04259 -0.01306 0)
(1.05852 -0.0150835 0)
(1.07627 -0.0169543 0)
(1.0955 -0.018669 0)
(1.11586 -0.0202304 0)
(1.13702 -0.0216474 0)
(1.15864 -0.0229336 0)
(1.18042 -0.0241068 0)
(1.20208 -0.0251872 0)
(1.2234 -0.026197 0)
(1.24416 -0.0271592 0)
(1.26419 -0.0280967 0)
(1.28337 -0.0290321 0)
(1.3016 -0.0299872 0)
(1.3188 -0.0309824 0)
(1.33494 -0.0320369 0)
(1.34997 -0.0331687 0)
(1.36391 -0.0343943 0)
(1.37676 -0.0357289 0)
(1.38855 -0.0371867 0)
(1.3993 -0.0387809 0)
(1.40906 -0.0405239 0)
(1.41786 -0.042427 0)
(1.42575 -0.0445014 0)
(1.43278 -0.0467572 0)
(1.43898 -0.0492043 0)
(1.44441 -0.0518519 0)
(1.44911 -0.0547088 0)
(1.45311 -0.057783 0)
(1.45644 -0.0610818 0)
(1.45913 -0.0646114 0)
(1.46122 -0.068377 0)
(1.46271 -0.0723824 0)
(1.46362 -0.0766294 0)
(1.46398 -0.0811178 0)
(1.46378 -0.0858449 0)
(1.46302 -0.0908053 0)
(1.46171 -0.09599 0)
(1.45985 -0.101387 0)
(1.45743 -0.10698 0)