/*--------------------------------*- C++ -*----------------------------------*\
| =========                 |                                                 |
| \\      /  F ield         | OpenFOAM: The Open Source CFD Toolbox           |
|  \\    /   O peration     | Version:  2306                                  |
|   \\  /    A nd           | Website:  www.openfoam.com                      |
|    \\/     M anipulation  |                                                 |
\*---------------------------------------------------------------------------*/
FoamFile
{
    version     2.0;
    format      ascii;
    arch        "LSB;label=32;scalar=64";
    class       volVectorField;
    location    "3.1";
    object      U;
}
// * * * * * * * * * * * * * * * * * * * * * * * * * * * * * * * * * * * * * //

dimensions      [0 1 -1 0 0 0 0];

internalField   nonuniform List<vector> 
1900
(
(0.984292 0.00727967 0)
(0.961747 0.0216954 0)
(0.952372 0.0181538 0)
(0.918712 0.0253104 0)
(0.903509 0.0154019 0)
(0.863138 0.0257502 0)
(0.852459 0.0115322 0)
(0.81216 0.026711 0)
(0.810046 0.00443937 0)
(0.770943 0.0258919 0)
(1.00257 0.0115554 0)
(1.00445 0.0258529 0)
(1.01946 0.0289425 0)
(1.02199 0.0304252 0)
(1.03493 0.0279564 0)
(1.03403 0.0283522 0)
(1.04418 0.025686 0)
(1.04295 0.024951 0)
(1.05144 0.0204573 0)
(1.05258 0.0158948 0)
(1.00048 0.00387935 0)
(1.00419 0.0111406 0)
(1.01256 0.0139677 0)
(1.02115 0.0157439 0)
(1.03157 0.0146441 0)
(1.04058 0.0143274 0)
(1.05005 0.0122406 0)
(1.05848 0.0107455 0)
(1.06698 0.00704716 0)
(1.07485 0.00279879 0)
(1.00007 0.0020708 0)
(1.00313 0.00582413 0)
(1.00889 0.00802084 0)
(1.0165 0.00898221 0)
(1.02529 0.00847844 0)
(1.03434 0.00734739 0)
(1.04328 0.00552732 0)
(1.05184 0.00331394 0)
(1.06003 0.000423409 0)
(1.06771 -0.00317646 0)
(1.00003 0.000418013 0)
(1.00261 0.00115131 0)
(1.00738 0.00139799 0)
(1.01402 0.0010963 0)
(1.02192 0.0001723 0)
(1.03036 -0.00122564 0)
(1.03879 -0.00306113 0)
(1.04692 -0.00531722 0)
(1.05458 -0.00803998 0)
(1.06171 -0.0112988 0)
(1.00003 -0.00106689 0)
(1.00255 -0.00304673 0)
(1.00719 -0.004784 0)
(1.01365 -0.00624139 0)
(1.02132 -0.00756495 0)
(1.02947 -0.00895801 0)
(1.03756 -0.0106074 0)
(1.04528 -0.0126268 0)
(1.05253 -0.0150574 0)
(1.05928 -0.0178706 0)
(1.00003 -0.00271603 0)
(1.00303 -0.00744906 0)
(1.00835 -0.0110884 0)
(1.01544 -0.0135407 0)
(1.02344 -0.0151849 0)
(1.0316 -0.0165715 0)
(1.03944 -0.0181073 0)
(1.04682 -0.0199714 0)
(1.05371 -0.0221582 0)
(1.06016 -0.0245788 0)
(1.00004 -0.00477359 0)
(1.00441 -0.0122466 0)
(1.01136 -0.0169404 0)
(1.01978 -0.0193834 0)
(1.02836 -0.0207249 0)
(1.03635 -0.0219148 0)
(1.04352 -0.0234025 0)
(1.04997 -0.0252161 0)
(1.0558 -0.0272156 0)
(1.06106 -0.0292686 0)
(1.00006 -0.0121214 0)
(1.00721 -0.0259602 0)
(1.01557 -0.0314439 0)
(1.02285 -0.0326003 0)
(1.02789 -0.0326934 0)
(1.03066 -0.0330805 0)
(1.03164 -0.033874 0)
(1.03129 -0.0348122 0)
(1.02983 -0.0356797 0)
(1.02726 -0.0364186 0)
(0.980776 -0.0091643 0)
(0.964582 -0.0188241 0)
(0.945446 -0.0220508 0)
(0.920764 -0.0221929 0)
(0.891955 -0.0217501 0)
(0.861614 -0.0215933 0)
(0.831336 -0.0216308 0)
(0.8016 -0.021628 0)
(0.772329 -0.0214609 0)
(0.74328 -0.0211457 0)
(0.000192794 -8.73119e-05 0)
(0.000290311 3.41202e-07 0)
(-1.42105e-05 4.61019e-05 0)
(-0.000519247 6.8221e-05 0)
(-0.00116454 7.77678e-05 0)
(-0.00190882 8.8668e-05 0)
(-0.00274338 0.000105493 0)
(-0.00367052 0.00012599 0)
(-0.00468921 0.00014728 0)
(-0.00579394 0.000167764 0)
(-0.00697735 0.000186988 0)
(-0.00823203 0.000204975 0)
(-0.00955104 0.000221766 0)
(-0.010928 0.000237285 0)
(-0.0123569 0.000251425 0)
(-0.0138325 0.000264113 0)
(-0.0153503 0.000275351 0)
(-0.0169067 0.000285245 0)
(-0.0184991 0.000293933 0)
(-0.0201261 0.000301504 0)
(-0.0217875 0.00030796 0)
(-0.0234839 0.000313104 0)
(-0.0252169 0.000316393 0)
(-0.0269884 0.000316797 0)
(-0.0288002 0.000312647 0)
(-0.0306541 0.000301444 0)
(-0.0325511 0.000279714 0)
(-0.0344922 0.000243056 0)
(-0.0364793 0.000186681 0)
(-0.0385182 0.000106815 0)
(-0.0406244 3.22619e-06 0)
(-0.0428316 -0.000117493 0)
(-0.0452019 -0.000237839 0)
(-0.047837 -0.000325601 0)
(-0.0508887 -0.000331755 0)
(-0.0545653 -0.000190661 0)
(-0.0591299 0.000173981 0)
(-0.0648819 0.0008341 0)
(-0.0721204 0.00183162 0)
(-0.0810877 0.00314903 0)
(-0.0919022 0.00469199 0)
(-0.104494 0.00629437 0)
(-0.118561 0.0077545 0)
(-0.13359 0.00888689 0)
(-0.148925 0.00955361 0)
(-0.163856 0.00969435 0)
(-0.177705 0.00934463 0)
(-0.189858 0.00861571 0)
(-0.199728 0.00760893 0)
(-0.206916 0.00642613 0)
(-0.211161 0.00512946 0)
(-0.212291 0.00366473 0)
(-0.210291 0.00202051 0)
(-0.205234 0.000351084 0)
(-0.197144 -0.00130223 0)
(-0.186218 -0.00286495 0)
(-0.17268 -0.0043006 0)
(-0.156782 -0.00559588 0)
(-0.138833 -0.00670685 0)
(-0.119165 -0.00761175 0)
(-0.0981299 -0.008307 0)
(-0.0760317 -0.00884938 0)
(-0.0532906 -0.00907706 0)
(-0.0302561 -0.00914934 0)
(-0.00726623 -0.00905771 0)
(0.0154585 -0.00880747 0)
(0.0375424 -0.00840753 0)
(0.0588909 -0.00788041 0)
(0.0791417 -0.007263 0)
(0.0982945 -0.00659506 0)
(0.116025 -0.00588982 0)
(0.132456 -0.00516997 0)
(0.147294 -0.00444095 0)
(0.16078 -0.00372959 0)
(0.172627 -0.00303537 0)
(0.183194 -0.00238686 0)
(0.192171 -0.00177416 0)
(0.200037 -0.00122854 0)
(0.206423 -0.000728691 0)
(0.211946 -0.000311372 0)
(0.216127 5.91203e-05 0)
(0.219754 0.000336216 0)
(0.222177 0.000574486 0)
(0.224404 0.000710597 0)
(0.225536 0.00082771 0)
(0.226877 0.000828076 0)
(0.227178 0.000850344 0)
(0.228127 0.000720281 0)
(0.228036 0.00068956 0)
(0.229024 0.000385314 0)
(3.58937e-05 -0.000469329 0)
(-0.000585163 0.00020538 0)
(-0.00209366 0.000758685 0)
(-0.00399729 0.00112951 0)
(-0.00624681 0.00136851 0)
(-0.00876949 0.00155481 0)
(-0.0115366 0.00173204 0)
(-0.0145332 0.00190596 0)
(-0.0177398 0.00207108 0)
(-0.0211337 0.00222318 0)
(-0.0246918 0.00236116 0)
(-0.0283929 0.00248547 0)
(-0.0322181 0.00259704 0)
(-0.0361507 0.00269698 0)
(-0.0401768 0.00278653 0)
(-0.0442855 0.0028672 0)
(-0.0484687 0.00294074 0)
(-0.0527219 0.00300918 0)
(-0.0570442 0.00307465 0)
(-0.0614383 0.00313931 0)
(-0.0659106 0.00320552 0)
(-0.0704713 0.00327546 0)
(-0.0751345 0.00335099 0)
(-0.0799185 0.00343373 0)
(-0.084846 0.0035253 0)
(-0.0899453 0.00362767 0)
(-0.0952512 0.00374379 0)
(-0.100806 0.00387892 0)
(-0.106661 0.00404287 0)
(-0.112877 0.00425316 0)
(-0.119526 0.00453839 0)
(-0.126694 0.00493894 0)
(-0.134474 0.00550838 0)
(-0.142958 0.00631016 0)
(-0.152226 0.00740858 0)
(-0.162326 0.00885486 0)
(-0.173249 0.0106663 0)
(-0.184912 0.0128033 0)
(-0.197145 0.01515 0)
(-0.209685 0.017514 0)
(-0.222187 0.019655 0)
(-0.234235 0.0213079 0)
(-0.245365 0.0222322 0)
(-0.255108 0.0222695 0)
(-0.263013 0.0213422 0)
(-0.268658 0.0194713 0)
(-0.271671 0.0167528 0)
(-0.271785 0.0133339 0)
(-0.268785 0.00934043 0)
(-0.262652 0.00491257 0)
(-0.253441 0.000200451 0)
(-0.241175 -0.00461789 0)
(-0.225843 -0.00945337 0)
(-0.207584 -0.0141281 0)
(-0.186508 -0.0185769 0)
(-0.162917 -0.0226621 0)
(-0.137029 -0.0262809 0)
(-0.109159 -0.0294523 0)
(-0.0795967 -0.0321161 0)
(-0.0487132 -0.0342736 0)
(-0.0169187 -0.0359246 0)
(0.0156567 -0.0370044 0)
(0.0486274 -0.0375812 0)
(0.0815362 -0.0376542 0)
(0.11397 -0.0372833 0)
(0.14602 -0.0364856 0)
(0.177004 -0.0353171 0)
(0.20723 -0.033815 0)
(0.235883 -0.0320438 0)
(0.263516 -0.0300654 0)
(0.289225 -0.0279352 0)
(0.313832 -0.0257126 0)
(0.336273 -0.023431 0)
(0.35766 -0.0211522 0)
(0.376719 -0.0188883 0)
(0.39491 -0.0167055 0)
(0.410654 -0.0145914 0)
(0.425847 -0.0126189 0)
(0.438471 -0.0107484 0)
(0.450996 -0.00906547 0)
(0.460778 -0.00749834 0)
(0.471067 -0.00615469 0)
(0.478325 -0.00492294 0)
(0.486892 -0.00394448 0)
(0.49195 -0.00305686 0)
(0.499377 -0.00245184 0)
(0.502533 -0.00189652 0)
(0.509471 -0.00165736 0)
(0.510957 -0.00140313 0)
(0.518105 -0.00150897 0)
(-0.00014914 0.000501323 0)
(-0.00190071 0.00236796 0)
(-0.00532044 0.00353714 0)
(-0.00919257 0.00428115 0)
(-0.0134804 0.00483427 0)
(-0.0180814 0.00532795 0)
(-0.0229631 0.00579994 0)
(-0.028103 0.00624744 0)
(-0.0334592 0.00665672 0)
(-0.0389878 0.00702097 0)
(-0.0446493 0.00733994 0)
(-0.0504094 0.00761641 0)
(-0.0562385 0.00785497 0)
(-0.062113 0.00806088 0)
(-0.0680146 0.00823991 0)
(-0.0739302 0.00839817 0)
(-0.0798514 0.00854219 0)
(-0.0857744 0.0086791 0)
(-0.0916992 0.00881683 0)
(-0.0976292 0.00896346 0)
(-0.10357 0.00912638 0)
(-0.109532 0.00931269 0)
(-0.115523 0.00952918 0)
(-0.121555 0.00978262 0)
(-0.127637 0.0100803 0)
(-0.133781 0.0104302 0)
(-0.139994 0.0108416 0)
(-0.146283 0.0113255 0)
(-0.152647 0.0118948 0)
(-0.159082 0.0125653 0)
(-0.165578 0.0133549 0)
(-0.172115 0.0142866 0)
(-0.17866 0.0153856 0)
(-0.185162 0.0166734 0)
(-0.191539 0.018157 0)
(-0.197679 0.0198199 0)
(-0.203433 0.0216091 0)
(-0.208612 0.0234252 0)
(-0.212993 0.0251181 0)
(-0.216308 0.0264914 0)
(-0.218293 0.0273153 0)
(-0.218693 0.0273533 0)
(-0.217251 0.0263733 0)
(-0.21379 0.0242736 0)
(-0.208154 0.0210248 0)
(-0.200241 0.0166963 0)
(-0.189975 0.0113664 0)
(-0.177409 0.00518836 0)
(-0.162478 -0.00167663 0)
(-0.145339 -0.00904615 0)
(-0.125895 -0.016732 0)
(-0.104207 -0.0244605 0)
(-0.0804021 -0.0319867 0)
(-0.0547453 -0.039169 0)
(-0.0272188 -0.0459398 0)
(0.00186494 -0.0520706 0)
(0.0325746 -0.0575178 0)
(0.0644024 -0.062173 0)
(0.0971496 -0.066026 0)
(0.130491 -0.069011 0)
(0.164177 -0.071233 0)
(0.197986 -0.0724444 0)
(0.231537 -0.0729562 0)
(0.264855 -0.0726736 0)
(0.297217 -0.0717034 0)
(0.329035 -0.0700459 0)
(0.359362 -0.0678394 0)
(0.388963 -0.0651104 0)
(0.416621 -0.0620019 0)
(0.44351 -0.0585433 0)
(0.468108 -0.0548739 0)
(0.49205 -0.051025 0)
(0.513424 -0.0471225 0)
(0.5344 -0.0431851 0)
(0.55256 -0.0393209 0)
(0.57072 -0.0355328 0)
(0.585801 -0.0319136 0)
(0.601424 -0.0284491 0)
(0.61364 -0.025221 0)
(0.627097 -0.0221974 0)
(0.636698 -0.019455 0)
(0.648423 -0.0169443 0)
(0.655668 -0.0147433 0)
(0.66614 -0.0127835 0)
(0.671269 -0.0111504 0)
(0.68101 -0.00975505 0)
(0.684236 -0.00869542 0)
(0.693805 -0.00785656 0)
(0.695299 -0.00735371 0)
(0.705289 -0.00703729 0)
(-0.000886587 0.00122661 0)
(-0.00464586 0.00505609 0)
(-0.0104044 0.00746993 0)
(-0.0163255 0.00905105 0)
(-0.0225845 0.0101956 0)
(-0.0291359 0.0111083 0)
(-0.035904 0.0118789 0)
(-0.0428 0.0125398 0)
(-0.0497397 0.0130932 0)
(-0.0566552 0.0135444 0)
(-0.0634957 0.0139045 0)
(-0.0702202 0.0141867 0)
(-0.0767971 0.0144031 0)
(-0.0832034 0.0145655 0)
(-0.0894232 0.0146855 0)
(-0.0954458 0.0147745 0)
(-0.101264 0.014843 0)
(-0.106872 0.0149017 0)
(-0.112269 0.014961 0)
(-0.117452 0.0150306 0)
(-0.12242 0.0151183 0)
(-0.127171 0.0152305 0)
(-0.131699 0.0153716 0)
(-0.135996 0.015545 0)
(-0.14005 0.015753 0)
(-0.143842 0.0159981 0)
(-0.14735 0.0162827 0)
(-0.150546 0.0166093 0)
(-0.153395 0.0169823 0)
(-0.155855 0.0174077 0)
(-0.157869 0.017893 0)
(-0.159372 0.0184493 0)
(-0.160285 0.0190896 0)
(-0.16052 0.0198259 0)
(-0.159967 0.0206458 0)
(-0.158504 0.0215095 0)
(-0.155986 0.0223378 0)
(-0.152251 0.0230096 0)
(-0.147126 0.0233667 0)
(-0.140437 0.0232238 0)
(-0.132076 0.0223881 0)
(-0.122009 0.0207009 0)
(-0.110094 0.0178219 0)
(-0.0963612 0.0137916 0)
(-0.0808156 0.0085575 0)
(-0.063573 0.00221058 0)
(-0.0445973 -0.00513287 0)
(-0.0240794 -0.0133131 0)
(-0.00184624 -0.0221275 0)
(0.0218916 -0.0312709 0)
(0.0471808 -0.0405081 0)
(0.0738474 -0.0496953 0)
(0.102014 -0.0586934 0)
(0.131333 -0.0672632 0)
(0.162008 -0.0753556 0)
(0.193537 -0.0826347 0)
(0.225976 -0.089068 0)
(0.258978 -0.0945274 0)
(0.292428 -0.0990037 0)
(0.325977 -0.102345 0)
(0.359385 -0.104614 0)
(0.392477 -0.105704 0)
(0.424851 -0.10578 0)
(0.456588 -0.104794 0)
(0.487059 -0.10293 0)
(0.516685 -0.100168 0)
(0.544589 -0.0967321 0)
(0.571595 -0.0926191 0)
(0.596509 -0.088071 0)
(0.620622 -0.0830786 0)
(0.642348 -0.0778863 0)
(0.663514 -0.072467 0)
(0.682048 -0.0670564 0)
(0.700392 -0.0615975 0)
(0.715867 -0.0563136 0)
(0.731641 -0.0511134 0)
(0.744276 -0.0462114 0)
(0.757816 -0.041482 0)
(0.767877 -0.0371365 0)
(0.77957 -0.0330159 0)
(0.787338 -0.0293354 0)
(0.797599 -0.0259043 0)
(0.803345 -0.0229481 0)
(0.812602 -0.0202464 0)
(0.816577 -0.0180395 0)
(0.825267 -0.0160794 0)
(0.827695 -0.0146242 0)
(0.836268 -0.0134 0)
(0.837343 -0.0126835 0)
(0.846261 -0.0121799 0)
(-0.00121264 0.00682775 0)
(-0.00664279 0.0135662 0)
(-0.0150976 0.016136 0)
(-0.0234742 0.0172439 0)
(-0.0319252 0.0180238 0)
(-0.0402027 0.0187806 0)
(-0.0481706 0.0194828 0)
(-0.0557797 0.0200426 0)
(-0.0629934 0.0204261 0)
(-0.069772 0.0206524 0)
(-0.0760898 0.0207482 0)
(-0.0819337 0.0207385 0)
(-0.0872999 0.0206445 0)
(-0.0921903 0.0204853 0)
(-0.096611 0.0202776 0)
(-0.10057 0.0200361 0)
(-0.104076 0.0197733 0)
(-0.107137 0.0194995 0)
(-0.109757 0.0192247 0)
(-0.111941 0.018957 0)
(-0.113692 0.0187021 0)
(-0.115008 0.0184632 0)
(-0.115883 0.0182409 0)
(-0.116305 0.0180333 0)
(-0.116258 0.0178369 0)
(-0.11572 0.0176488 0)
(-0.114663 0.0174646 0)
(-0.113054 0.0172777 0)
(-0.110849 0.0170831 0)
(-0.108 0.0168784 0)
(-0.104446 0.0166637 0)
(-0.10011 0.0164375 0)
(-0.0949 0.0161972 0)
(-0.0887345 0.0159649 0)
(-0.0815043 0.0157103 0)
(-0.0730997 0.0153847 0)
(-0.063405 0.0149119 0)
(-0.0523061 0.0141846 0)
(-0.03969 0.0130612 0)
(-0.0254401 0.0113596 0)
(-0.00944415 0.00888857 0)
(0.0080402 0.00544705 0)
(0.0270306 0.000939788 0)
(0.0475817 -0.00466335 0)
(0.0695729 -0.0113849 0)
(0.0928404 -0.0191798 0)
(0.117504 -0.0279314 0)
(0.143307 -0.0374111 0)
(0.170359 -0.0474594 0)
(0.198438 -0.0578375 0)
(0.227659 -0.0683554 0)
(0.257751 -0.0787819 0)
(0.288859 -0.088928 0)
(0.320616 -0.0985538 0)
(0.353133 -0.1075 0)
(0.385943 -0.115513 0)
(0.419097 -0.122494 0)
(0.452106 -0.128255 0)
(0.484978 -0.132785 0)
(0.517249 -0.135936 0)
(0.548863 -0.137785 0)
(0.579494 -0.138242 0)
(0.609013 -0.137474 0)
(0.637313 -0.135446 0)
(0.66414 -0.132389 0)
(0.689661 -0.128293 0)
(0.713444 -0.123435 0)
(0.735989 -0.117815 0)
(0.756608 -0.111736 0)
(0.776188 -0.105181 0)
(0.793703 -0.0984553 0)
(0.810487 -0.0915073 0)
(0.825089 -0.0846367 0)
(0.839352 -0.0777467 0)
(0.851299 -0.0711273 0)
(0.863372 -0.0646343 0)
(0.872953 -0.0585518 0)
(0.88319 -0.0526892 0)
(0.890695 -0.0473321 0)
(0.899455 -0.042246 0)
(0.905158 -0.037726 0)
(0.912792 -0.0334963 0)
(0.916944 -0.0298693 0)
(0.923793 -0.02653 0)
(0.926615 -0.0238151 0)
(0.933012 -0.0213715 0)
(0.934702 -0.0195664 0)
(0.940979 -0.0180101 0)
(0.941705 -0.0171057 0)
(0.948195 -0.016431 0)
(-0.00362894 0.00653533 0)
(-0.0133421 0.0168608 0)
(-0.0243253 0.0215778 0)
(-0.0334523 0.0242649 0)
(-0.0418061 0.0258878 0)
(-0.0495674 0.0267832 0)
(-0.0566742 0.027134 0)
(-0.0629784 0.0271138 0)
(-0.0683701 0.0268532 0)
(-0.0728382 0.0264203 0)
(-0.0764294 0.0258612 0)
(-0.0791952 0.0252082 0)
(-0.0811878 0.0244883 0)
(-0.0824569 0.0237235 0)
(-0.0830479 0.0229315 0)
(-0.0830014 0.022126 0)
(-0.0823525 0.0213175 0)
(-0.0811274 0.0205114 0)
(-0.0793488 0.019715 0)
(-0.0770341 0.0189333 0)
(-0.0741942 0.0181668 0)
(-0.0708348 0.0174135 0)
(-0.066955 0.0166685 0)
(-0.0625468 0.0159241 0)
(-0.0575927 0.0151705 0)
(-0.052076 0.0144021 0)
(-0.0459737 0.0136135 0)
(-0.0392492 0.0127894 0)
(-0.0318629 0.0119167 0)
(-0.0237668 0.0109843 0)
(-0.0149052 0.00998292 0)
(-0.00521329 0.00890035 0)
(0.00544162 0.0077188 0)
(0.0171132 0.00640839 0)
(0.0298693 0.00493776 0)
(0.0438322 0.00327752 0)
(0.0591012 0.00136333 0)
(0.0757673 -0.000899887 0)
(0.0939022 -0.00362958 0)
(0.113571 -0.00696897 0)
(0.13476 -0.0110001 0)
(0.15743 -0.0160222 0)
(0.181576 -0.0220102 0)
(0.207059 -0.0290209 0)
(0.23384 -0.0370509 0)
(0.261708 -0.046015 0)
(0.290693 -0.0558302 0)
(0.320549 -0.0663265 0)
(0.351326 -0.0773219 0)
(0.382725 -0.088582 0)
(0.414824 -0.0998979 0)
(0.447238 -0.111006 0)
(0.480056 -0.121695 0)
(0.5128 -0.131695 0)
(0.545552 -0.140822 0)
(0.577755 -0.148826 0)
(0.609498 -0.155583 0)
(0.6402 -0.160901 0)
(0.669991 -0.164756 0)
(0.698342 -0.167027 0)
(0.725422 -0.167798 0)
(0.750819 -0.167019 0)
(0.774726 -0.164869 0)
(0.796887 -0.161354 0)
(0.817469 -0.156729 0)
(0.836394 -0.151025 0)
(0.853743 -0.144548 0)
(0.869639 -0.137327 0)
(0.884007 -0.129687 0)
(0.897206 -0.121627 0)
(0.908936 -0.113471 0)
(0.919826 -0.10517 0)
(0.929284 -0.097037 0)
(0.938253 -0.0889674 0)
(0.945786 -0.0812656 0)
(0.953198 -0.0737696 0)
(0.959113 -0.0667804 0)
(0.965289 -0.0600823 0)
(0.96985 -0.0539817 0)
(0.975073 -0.0482128 0)
(0.978499 -0.043097 0)
(0.983018 -0.0383215 0)
(0.985493 -0.0342315 0)
(0.989531 -0.0304685 0)
(0.991207 -0.0274108 0)
(0.994968 -0.0246548 0)
(0.995973 -0.0226194 0)
(0.999654 -0.0208565 0)
(1.00009 -0.0198338 0)
(1.00388 -0.0190598 0)
(-0.00177744 0.0284818 0)
(-0.00957462 0.0401305 0)
(-0.0242172 0.0401325 0)
(-0.0358054 0.037805 0)
(-0.0450525 0.0360328 0)
(-0.051683 0.0346133 0)
(-0.0559786 0.0332019 0)
(-0.0583197 0.0317176 0)
(-0.0590594 0.0301753 0)
(-0.0584691 0.0285981 0)
(-0.0567326 0.0270093 0)
(-0.0539929 0.0254244 0)
(-0.050369 0.0238588 0)
(-0.045961 0.0223236 0)
(-0.0408524 0.0208248 0)
(-0.0351118 0.0193646 0)
(-0.0288 0.0179442 0)
(-0.0219479 0.0165516 0)
(-0.014595 0.0151926 0)
(-0.00676726 0.0138689 0)
(0.00152423 0.0125739 0)
(0.0102731 0.0112983 0)
(0.0194818 0.0100317 0)
(0.0291592 0.00876119 0)
(0.039342 0.00746758 0)
(0.0500464 0.00612433 0)
(0.0612786 0.00470907 0)
(0.0730943 0.00321347 0)
(0.0855367 0.00162596 0)
(0.0986544 -7.35724e-05 0)
(0.112507 -0.00190548 0)
(0.127149 -0.00389824 0)
(0.142666 -0.00605855 0)
(0.159114 -0.00842784 0)
(0.17657 -0.0110495 0)
(0.195154 -0.0139714 0)
(0.214945 -0.0172521 0)
(0.236008 -0.020971 0)
(0.258396 -0.0252187 0)
(0.28214 -0.0301053 0)
(0.307245 -0.0357199 0)
(0.333662 -0.0421481 0)
(0.361354 -0.0494566 0)
(0.390155 -0.0576727 0)
(0.420001 -0.0667764 0)
(0.450655 -0.0766905 0)
(0.482051 -0.0873025 0)
(0.513891 -0.0984437 0)
(0.546113 -0.109916 0)
(0.578338 -0.121483 0)
(0.610519 -0.132912 0)
(0.642202 -0.143938 0)
(0.673378 -0.154327 0)
(0.703527 -0.163815 0)
(0.732696 -0.172206 0)
(0.760338 -0.179275 0)
(0.786597 -0.184895 0)
(0.810935 -0.188909 0)
(0.833625 -0.191295 0)
(0.854192 -0.19198 0)
(0.873038 -0.191061 0)
(0.889774 -0.188542 0)
(0.904898 -0.184621 0)
(0.918096 -0.179358 0)
(0.929903 -0.173024 0)
(0.940074 -0.165697 0)
(0.949115 -0.157689 0)
(0.956847 -0.149057 0)
(0.963696 -0.140123 0)
(0.969559 -0.130897 0)
(0.974734 -0.121691 0)
(0.979216 -0.112456 0)
(0.983139 -0.103494 0)
(0.986625 -0.0946941 0)
(0.989615 -0.0863492 0)
(0.992391 -0.0782878 0)
(0.994678 -0.0708042 0)
(0.996953 -0.0636701 0)
(0.998697 -0.0571911 0)
(1.00062 -0.0510863 0)
(1.00194 -0.0456831 0)
(1.00363 -0.0406497 0)
(1.0046 -0.036345 0)
(1.00614 -0.0323863 0)
(1.00681 -0.0291745 0)
(1.00828 -0.0262748 0)
(1.0087 -0.0241398 0)
(1.01015 -0.0222804 0)
(1.01036 -0.021211 0)
(1.01184 -0.0203831 0)
(-0.0197926 0.00798884 0)
(-0.0383181 0.0316944 0)
(-0.041726 0.0391352 0)
(-0.0439763 0.0400012 0)
(-0.0429694 0.0383752 0)
(-0.0395675 0.0356296 0)
(-0.0342191 0.0325666 0)
(-0.0272485 0.0295108 0)
(-0.018922 0.0265778 0)
(-0.00951079 0.0238216 0)
(0.000799435 0.0212242 0)
(0.011844 0.0187632 0)
(0.0234823 0.0164286 0)
(0.0356057 0.0142127 0)
(0.0481281 0.0121073 0)
(0.0609949 0.0101019 0)
(0.0741183 0.00819074 0)
(0.087541 0.00636566 0)
(0.101207 0.00459918 0)
(0.115087 0.0028672 0)
(0.129195 0.00115823 0)
(0.143538 -0.000536708 0)
(0.158138 -0.00223349 0)
(0.173011 -0.00395339 0)
(0.188194 -0.00572054 0)
(0.203721 -0.00755963 0)
(0.219616 -0.00949957 0)
(0.235949 -0.0115666 0)
(0.252771 -0.0137829 0)
(0.270133 -0.0161729 0)
(0.288088 -0.0187615 0)
(0.306695 -0.0215775 0)
(0.326013 -0.0246478 0)
(0.346109 -0.0280008 0)
(0.36704 -0.0316649 0)
(0.388874 -0.0356909 0)
(0.41166 -0.0401332 0)
(0.435441 -0.045059 0)
(0.460235 -0.0505317 0)
(0.486037 -0.0566273 0)
(0.512822 -0.0634013 0)
(0.540503 -0.070908 0)
(0.56899 -0.0791692 0)
(0.598103 -0.0881766 0)
(0.627699 -0.0978754 0)
(0.657513 -0.108172 0)
(0.687375 -0.118927 0)
(0.716955 -0.129972 0)
(0.746059 -0.141105 0)
(0.774301 -0.152101 0)
(0.801519 -0.162719 0)
(0.827295 -0.172709 0)
(0.851551 -0.181831 0)
(0.873868 -0.189851 0)
(0.8943 -0.196578 0)
(0.912463 -0.201833 0)
(0.928586 -0.20551 0)
(0.942326 -0.207514 0)
(0.954105 -0.207854 0)
(0.96362 -0.20652 0)
(0.971472 -0.203631 0)
(0.977369 -0.199247 0)
(0.982037 -0.193583 0)
(0.985154 -0.18674 0)
(0.987508 -0.178994 0)
(0.988712 -0.170446 0)
(0.989566 -0.161394 0)
(0.989608 -0.1519 0)
(0.989615 -0.142261 0)
(0.989057 -0.132476 0)
(0.988671 -0.122831 0)
(0.98788 -0.113265 0)
(0.987375 -0.104055 0)
(0.986558 -0.0950766 0)
(0.986081 -0.0866087 0)
(0.985344 -0.078466 0)
(0.984959 -0.0709345 0)
(0.984341 -0.0637735 0)
(0.984066 -0.0572867 0)
(0.983571 -0.0511816 0)
(0.983403 -0.045789 0)
(0.983016 -0.0407654 0)
(0.982941 -0.0364776 0)
(0.98264 -0.0325304 0)
(0.982635 -0.0293358 0)
(0.982391 -0.0264448 0)
(0.98243 -0.0243245 0)
(0.982207 -0.022469 0)
(0.982257 -0.0214102 0)
(0.982009 -0.0205792 0)
(-0.0191895 0.108258 0)
(-0.0184526 0.0728089 0)
(-0.0116837 0.0580151 0)
(0.000872817 0.0461118 0)
(0.0173607 0.0362839 0)
(0.0360838 0.0287094 0)
(0.0560742 0.0227403 0)
(0.0766613 0.017808 0)
(0.0975292 0.0135329 0)
(0.118279 0.00973647 0)
(0.138932 0.00635251 0)
(0.159417 0.00333623 0)
(0.179668 0.000620566 0)
(0.199662 -0.00186278 0)
(0.219382 -0.00416582 0)
(0.238853 -0.00632377 0)
(0.258046 -0.0083647 0)
(0.277029 -0.0103108 0)
(0.295785 -0.0121874 0)
(0.314329 -0.0140238 0)
(0.332709 -0.0158475 0)
(0.350969 -0.0176816 0)
(0.369151 -0.01955 0)
(0.387296 -0.0214791 0)
(0.405454 -0.0234965 0)
(0.423678 -0.0256291 0)
(0.442021 -0.0278997 0)
(0.46054 -0.0303378 0)
(0.479291 -0.0329734 0)
(0.49833 -0.035834 0)
(0.517704 -0.0389444 0)
(0.537464 -0.0423302 0)
(0.55765 -0.0460159 0)
(0.578308 -0.0500291 0)
(0.599465 -0.0543983 0)
(0.621153 -0.0591593 0)
(0.643378 -0.0643491 0)
(0.666145 -0.0700099 0)
(0.689418 -0.0761797 0)
(0.713157 -0.0828979 0)
(0.737275 -0.0901919 0)
(0.761653 -0.0980817 0)
(0.786135 -0.106558 0)
(0.810525 -0.115585 0)
(0.834607 -0.125087 0)
(0.85812 -0.134956 0)
(0.880812 -0.145041 0)
(0.902381 -0.155172 0)
(0.922576 -0.165145 0)
(0.941104 -0.174744 0)
(0.957784 -0.18374 0)
(0.972365 -0.191907 0)
(0.984791 -0.199033 0)
(0.994881 -0.20493 0)
(1.00276 -0.209444 0)
(1.00831 -0.21246 0)
(1.01187 -0.213915 0)
(1.01337 -0.213787 0)
(1.01332 -0.212117 0)
(1.01166 -0.208965 0)
(1.00903 -0.204458 0)
(1.00529 -0.198707 0)
(1.00117 -0.191913 0)
(0.996367 -0.184203 0)
(0.991692 -0.175815 0)
(0.986621 -0.166852 0)
(0.982034 -0.15756 0)
(0.977199 -0.147991 0)
(0.973064 -0.138389 0)
(0.968704 -0.12874 0)
(0.965158 -0.11929 0)
(0.961325 -0.109961 0)
(0.958365 -0.101011 0)
(0.955017 -0.0922997 0)
(0.952589 -0.0841003 0)
(0.949659 -0.0762117 0)
(0.947705 -0.0689292 0)
(0.945122 -0.0619903 0)
(0.943586 -0.0557203 0)
(0.941284 -0.0497965 0)
(0.940121 -0.044583 0)
(0.938034 -0.0396974 0)
(0.937204 -0.0355514 0)
(0.935264 -0.031701 0)
(0.934727 -0.0286138 0)
(0.932856 -0.0257806 0)
(0.932564 -0.0237342 0)
(0.930671 -0.0218966 0)
(0.930564 -0.0208763 0)
(0.928542 -0.0200214 0)
(0.0701851 0.00708254 0)
(0.0903598 0.00645909 0)
(0.154257 0.00589836 0)
(0.199497 0.00261001 0)
(0.238671 -0.00181054 0)
(0.274386 -0.00607025 0)
(0.307421 -0.0097823 0)
(0.33769 -0.0129649 0)
(0.365901 -0.0157253 0)
(0.392361 -0.0181444 0)
(0.417425 -0.0203014 0)
(0.441294 -0.0222527 0)
(0.464083 -0.0240392 0)
(0.485902 -0.0256953 0)
(0.506848 -0.0272474 0)
(0.527014 -0.0287215 0)
(0.546473 -0.0301372 0)
(0.565296 -0.031524 0)
(0.583544 -0.0329029 0)
(0.60127 -0.0342945 0)
(0.61854 -0.035724 0)
(0.635413 -0.0372185 0)
(0.65195 -0.0388049 0)
(0.668205 -0.0405085 0)
(0.684237 -0.0423549 0)
(0.700099 -0.0443683 0)
(0.715844 -0.0465729 0)
(0.731521 -0.0489929 0)
(0.747178 -0.0516523 0)
(0.762856 -0.0545747 0)
(0.778589 -0.0577834 0)
(0.794404 -0.0613005 0)
(0.810318 -0.0651466 0)
(0.826346 -0.0693419 0)
(0.842486 -0.0739064 0)
(0.858729 -0.0788609 0)
(0.875047 -0.0842264 0)
(0.8914 -0.0900232 0)
(0.907716 -0.0962685 0)
(0.923915 -0.102974 0)
(0.939868 -0.110142 0)
(0.955436 -0.11776 0)
(0.970442 -0.125795 0)
(0.984703 -0.134188 0)
(0.998003 -0.14285 0)
(1.01013 -0.151664 0)
(1.02088 -0.160483 0)
(1.03003 -0.16914 0)
(1.03743 -0.177441 0)
(1.04293 -0.185196 0)
(1.04646 -0.192205 0)
(1.04799 -0.198296 0)
(1.04758 -0.203306 0)
(1.04531 -0.207114 0)
(1.04138 -0.20962 0)
(1.03597 -0.210777 0)
(1.02942 -0.210565 0)
(1.02189 -0.20901 0)
(1.01382 -0.206164 0)
(1.00529 -0.202117 0)
(0.99676 -0.196982 0)
(0.988142 -0.190887 0)
(0.979919 -0.18398 0)
(0.971778 -0.176383 0)
(0.964264 -0.168254 0)
(0.95682 -0.159689 0)
(0.950111 -0.15085 0)
(0.943344 -0.141792 0)
(0.937374 -0.132686 0)
(0.931161 -0.123539 0)
(0.925809 -0.114541 0)
(0.920014 -0.105645 0)
(0.915185 -0.0970676 0)
(0.909717 -0.0887015 0)
(0.905381 -0.0807959 0)
(0.90021 -0.0731757 0)
(0.896391 -0.0661283 0)
(0.891512 -0.0594014 0)
(0.88825 -0.0533279 0)
(0.883648 -0.0475726 0)
(0.880975 -0.0425256 0)
(0.876608 -0.0377668 0)
(0.874537 -0.0337597 0)
(0.870325 -0.0299934 0)
(0.868846 -0.0270185 0)
(0.864671 -0.0242226 0)
(0.863754 -0.0222586 0)
(0.859455 -0.0204017 0)
(0.859047 -0.0194261 0)
(0.854426 -0.0184815 0)
(0.774331 -0.00944861 0)
(0.776111 -0.0210319 0)
(0.777175 -0.0273909 0)
(0.779106 -0.031226 0)
(0.783045 -0.0340152 0)
(0.788765 -0.0363676 0)
(0.795993 -0.0384131 0)
(0.804092 -0.0401258 0)
(0.81285 -0.0415184 0)
(0.822044 -0.0426365 0)
(0.83149 -0.0435572 0)
(0.841063 -0.0443524 0)
(0.850664 -0.0450684 0)
(0.860224 -0.0457321 0)
(0.869688 -0.0463613 0)
(0.879016 -0.046973 0)
(0.888179 -0.0475851 0)
(0.897158 -0.0482189 0)
(0.905943 -0.0488965 0)
(0.914531 -0.0496402 0)
(0.922928 -0.0504754 0)
(0.931144 -0.0514283 0)
(0.939194 -0.0525257 0)
(0.947095 -0.0537926 0)
(0.954866 -0.0552533 0)
(0.962522 -0.0569302 0)
(0.970083 -0.0588452 0)
(0.977561 -0.0610178 0)
(0.98497 -0.0634671 0)
(0.992313 -0.0662106 0)
(0.999591 -0.0692651 0)
(1.0068 -0.0726454 0)
(1.01393 -0.0763649 0)
(1.02097 -0.0804349 0)
(1.02788 -0.0848662 0)
(1.03463 -0.0896679 0)
(1.04118 -0.0948481 0)
(1.04746 -0.100412 0)
(1.0534 -0.106361 0)
(1.0589 -0.112688 0)
(1.06387 -0.119374 0)
(1.06818 -0.126385 0)
(1.07171 -0.133668 0)
(1.07432 -0.141153 0)
(1.0759 -0.148745 0)
(1.07634 -0.156333 0)
(1.07552 -0.163786 0)
(1.07339 -0.170959 0)
(1.06993 -0.1777 0)
(1.06515 -0.18386 0)
(1.05911 -0.189294 0)
(1.05193 -0.193876 0)
(1.04376 -0.197494 0)
(1.0348 -0.200065 0)
(1.02524 -0.201533 0)
(1.01531 -0.201875 0)
(1.00521 -0.201088 0)
(0.995095 -0.1992 0)
(0.985113 -0.196248 0)
(0.975293 -0.192305 0)
(0.965728 -0.187442 0)
(0.956306 -0.181752 0)
(0.947125 -0.175314 0)
(0.937951 -0.16823 0)
(0.928961 -0.160589 0)
(0.9198 -0.152491 0)
(0.910806 -0.144036 0)
(0.901493 -0.135314 0)
(0.892432 -0.126442 0)
(0.882956 -0.117501 0)
(0.873921 -0.108629 0)
(0.864401 -0.0998705 0)
(0.855595 -0.0913759 0)
(0.846223 -0.0831339 0)
(0.837911 -0.0753139 0)
(0.828897 -0.0678392 0)
(0.821341 -0.0609104 0)
(0.812846 -0.0543701 0)
(0.806255 -0.0484605 0)
(0.798345 -0.0429288 0)
(0.792852 -0.0380773 0)
(0.78548 -0.0335531 0)
(0.781137 -0.0297466 0)
(0.77415 -0.0261934 0)
(0.770961 -0.023396 0)
(0.764122 -0.0207598 0)
(0.762065 -0.0189271 0)
(0.755055 -0.0171493 0)
(0.754097 -0.0162426 0)
(0.746515 -0.0152734 0)
(1.05754 0.00788041 0)
(1.06071 -0.000650318 0)
(1.06153 -0.00795224 0)
(1.0609 -0.0137587 0)
(1.06014 -0.0185495 0)
(1.05996 -0.0227353 0)
(1.0605 -0.0264921 0)
(1.06162 -0.0298333 0)
(1.06309 -0.0327573 0)
(1.06475 -0.0352882 0)
(1.06653 -0.0374711 0)
(1.06837 -0.039361 0)
(1.07025 -0.0410104 0)
(1.07214 -0.0424655 0)
(1.07403 -0.043766 0)
(1.07588 -0.0449477 0)
(1.07769 -0.0460451 0)
(1.07943 -0.0470917 0)
(1.08108 -0.0481218 0)
(1.08265 -0.0491689 0)
(1.08413 -0.0502674 0)
(1.08551 -0.0514501 0)
(1.08679 -0.0527504 0)
(1.08798 -0.0541984 0)
(1.08907 -0.0558236 0)
(1.09007 -0.0576515 0)
(1.09097 -0.0597071 0)
(1.09178 -0.0620109 0)
(1.09248 -0.0645828 0)
(1.09308 -0.0674376 0)
(1.09356 -0.070589 0)
(1.0939 -0.0740462 0)
(1.09409 -0.0778182 0)
(1.09412 -0.0819107 0)
(1.09396 -0.086329 0)
(1.09357 -0.0910752 0)
(1.09292 -0.0961499 0)
(1.09198 -0.101549 0)
(1.09069 -0.107263 0)
(1.08901 -0.113276 0)
(1.08689 -0.119559 0)
(1.08426 -0.12607 0)
(1.08107 -0.132756 0)
(1.07727 -0.139544 0)
(1.07283 -0.146349 0)
(1.06772 -0.153073 0)
(1.06193 -0.159609 0)
(1.05547 -0.165841 0)
(1.04838 -0.171653 0)
(1.04071 -0.176932 0)
(1.03253 -0.181571 0)
(1.02392 -0.185469 0)
(1.01494 -0.188538 0)
(1.00567 -0.1907 0)
(0.996129 -0.191895 0)
(0.986352 -0.192081 0)
(0.976321 -0.191232 0)
(0.966 -0.189355 0)
(0.955314 -0.186469 0)
(0.94418 -0.182617 0)
(0.932515 -0.177833 0)
(0.920236 -0.172164 0)
(0.907306 -0.165664 0)
(0.893674 -0.158427 0)
(0.879409 -0.150555 0)
(0.864489 -0.142176 0)
(0.84911 -0.133398 0)
(0.83324 -0.124353 0)
(0.817218 -0.115159 0)
(0.800931 -0.105967 0)
(0.784875 -0.0969046 0)
(0.768785 -0.0880965 0)
(0.753352 -0.0796325 0)
(0.738045 -0.0715802 0)
(0.723799 -0.0640014 0)
(0.709704 -0.0569131 0)
(0.697058 -0.050373 0)
(0.684422 -0.0443472 0)
(0.673626 -0.0389061 0)
(0.662503 -0.0339579 0)
(0.653661 -0.0296075 0)
(0.6439 -0.0256912 0)
(0.636978 -0.0223689 0)
(0.628256 -0.0193916 0)
(0.623165 -0.0170044 0)
(0.615033 -0.0148577 0)
(0.611691 -0.0133163 0)
(0.603581 -0.0119052 0)
(0.601951 -0.011148 0)
(0.593159 -0.0104043 0)
(1.08206 -0.00368789 0)
(1.08807 -0.0113904 0)
(1.09238 -0.0188644 0)
(1.09504 -0.0251182 0)
(1.09654 -0.0300091 0)
(1.0975 -0.0338609 0)
(1.09831 -0.0370314 0)
(1.09914 -0.0397473 0)
(1.09997 -0.0421027 0)
(1.10076 -0.0441236 0)
(1.10147 -0.0458245 0)
(1.10207 -0.047233 0)
(1.10257 -0.0483905 0)
(1.10299 -0.0493457 0)
(1.10332 -0.0501463 0)
(1.10356 -0.0508375 0)
(1.10372 -0.0514598 0)
(1.10378 -0.0520515 0)
(1.10374 -0.0526489 0)
(1.1036 -0.0532869 0)
(1.10334 -0.0539998 0)
(1.10297 -0.0548203 0)
(1.10247 -0.0557802 0)
(1.10186 -0.0569086 0)
(1.10113 -0.0582335 0)
(1.10028 -0.0597785 0)
(1.0993 -0.0615662 0)
(1.0982 -0.0636139 0)
(1.09697 -0.0659382 0)
(1.09561 -0.0685498 0)
(1.09411 -0.0714593 0)
(1.09246 -0.0746719 0)
(1.09065 -0.0781939 0)
(1.08869 -0.0820267 0)
(1.08654 -0.0861727 0)
(1.08421 -0.0906291 0)
(1.08168 -0.0953926 0)
(1.07892 -0.100453 0)