/*--------------------------------*- C++ -*----------------------------------*\
| =========                 |                                                 |
| \\      /  F ield         | OpenFOAM: The Open Source CFD Toolbox           |
|  \\    /   O peration     | Version:  2306                                  |
|   \\  /    A nd           | Website:  www.openfoam.com                      |
|    \\/     M anipulation  |                                                 |
\*---------------------------------------------------------------------------*/
FoamFile
{
    version     2.0;
    format      ascii;
    arch        "LSB;label=32;scalar=64";
    class       surfaceScalarField;
    location    "3.76";
    object      phi;
}
// * * * * * * * * * * * * * * * * * * * * * * * * * * * * * * * * * * * * * //

dimensions      [0 3 -1 0 0 0 0];

oriented        oriented;

internalField   nonuniform List<scalar> 
3680
(
4.9347e-05
6.52957e-07
4.79742e-05
1.37284e-06
4.66982e-05
1.27604e-06
4.52613e-05
1.43688e-06
4.41239e-05
1.1374e-06
4.27206e-05
1.4033e-06
4.17377e-05
9.82837e-07
4.04375e-05
1.30021e-06
3.98084e-05
6.29108e-07
9.83471e-07
3.8825e-05
5.03392e-05
3.13763e-07
5.0868e-05
8.44069e-07
5.11323e-05
1.01172e-06
5.14657e-05
1.10349e-06
5.15934e-05
1.00968e-06
5.19771e-05
1.01956e-06
5.20629e-05
8.97096e-07
5.25156e-05
8.47472e-07
5.25105e-05
6.3424e-07
4.2684e-07
5.30671e-05
5.01633e-05
1.50464e-07
5.05555e-05
4.51914e-07
5.09761e-05
5.91082e-07
5.14198e-05
6.59734e-07
5.18171e-05
6.12386e-07
5.22683e-05
5.68367e-07
5.26956e-05
4.69866e-07
5.31645e-05
3.78501e-07
5.35816e-05
2.17222e-07
4.18711e-09
5.40042e-05
5.00932e-05
5.7242e-08
5.03764e-05
1.68722e-07
5.07341e-05
2.33392e-07
5.11462e-05
2.47603e-07
5.15499e-05
2.08765e-07
5.19725e-05
1.45746e-07
5.23836e-05
5.87141e-08
5.28129e-05
-5.0741e-08
5.32236e-05
-1.93499e-07
-3.64687e-07
5.35925e-05
5.00738e-05
-1.65488e-08
5.02913e-05
-4.87463e-08
5.0611e-05
-8.63969e-08
5.09887e-05
-1.30004e-07
5.13802e-05
-1.82738e-07
5.17742e-05
-2.48279e-07
5.21651e-05
-3.32192e-07
5.25511e-05
-4.36781e-07
5.29204e-05
-5.62779e-07
-7.0995e-07
5.32657e-05
5.00732e-05
-8.97054e-08
5.02829e-05
-2.58459e-07
5.05976e-05
-4.01173e-07
5.0965e-05
-4.97392e-07
5.1344e-05
-5.61726e-07
5.1721e-05
-6.25285e-07
5.20906e-05
-7.01739e-07
5.24512e-05
-7.97374e-07
5.28002e-05
-9.11832e-07
-1.04087e-06
5.31311e-05
5.00942e-05
-1.83884e-07
5.03555e-05
-5.19764e-07
5.0698e-05
-7.43719e-07
5.10678e-05
-8.67166e-07
5.14399e-05
-9.33866e-07
5.18034e-05
-9.88752e-07
5.21597e-05
-1.05802e-06
5.25104e-05
-1.14813e-06
5.28505e-05
-1.25192e-06
-1.36128e-06
5.31709e-05
5.01664e-05
-3.50333e-07
5.05179e-05
-8.7122e-07
5.09205e-05
-1.14632e-06
5.12991e-05
-1.24572e-06
5.16476e-05
-1.28236e-06
5.19845e-05
-1.32569e-06
5.23178e-05
-1.39129e-06
5.26384e-05
-1.46875e-06
5.29325e-05
-1.54605e-06
-1.61776e-06
5.3189e-05
5.03676e-05
-7.17914e-07
5.08003e-05
-1.30391e-06
5.10988e-05
-1.44484e-06
5.1276e-05
-1.42292e-06
5.14041e-05
-1.41051e-06
5.15023e-05
-1.42382e-06
5.15529e-05
-1.44195e-06
5.15394e-05
-1.45521e-06
5.14533e-05
-1.45998e-06
-1.45961e-06
5.12952e-05
4.92821e-05
4.79782e-05
4.65333e-05
4.51104e-05
4.36999e-05
4.22761e-05
4.08342e-05
3.93789e-05
3.7919e-05
3.64594e-05
1.42121e-08
-1.42121e-08
1.0507e-08
3.70491e-09
-8.11125e-09
1.86182e-08
-3.62061e-08
2.80949e-08
-7.10441e-08
3.4838e-08
-1.11386e-07
4.03423e-08
-1.56874e-07
4.5488e-08
-2.07263e-07
5.0389e-08
-2.62258e-07
5.49945e-08
-3.21523e-07
5.92655e-08
-3.84704e-07
6.31805e-08
-4.51437e-07
6.67329e-08
-5.21365e-07
6.9928e-08
-5.94143e-07
7.27785e-08
-6.69447e-07
7.53035e-08
-7.46974e-07
7.75276e-08
-8.26455e-07
7.94809e-08
-9.07655e-07
8.11995e-08
-9.9038e-07
8.27255e-08
-1.07449e-06
8.41128e-08
-1.15992e-06
8.54264e-08
-1.24666e-06
8.6736e-08
-1.33477e-06
8.8111e-08
-1.42439e-06
8.96191e-08
-1.51571e-06
9.13264e-08
-1.60901e-06
9.32944e-08
-1.70458e-06
9.55719e-08
-1.80277e-06
9.81909e-08
-1.90394e-06
1.01174e-07
-2.00849e-06
1.04546e-07
-2.11686e-06
1.08368e-07
-2.22967e-06
1.12815e-07
-2.34794e-06
1.18269e-07
-2.47332e-06
1.25381e-07
-2.60845e-06
1.35123e-07
-2.75726e-06
1.48813e-07
-2.92534e-06
1.6808e-07
-3.12005e-06
1.94708e-07
-3.35039e-06
2.30347e-07
-3.62642e-06
2.76031e-07
-3.95797e-06
3.3155e-07
-4.35283e-06
3.94852e-07
-4.81457e-06
4.61739e-07
-5.34044e-06
5.25879e-07
-5.92039e-06
5.79946e-07
-6.5374e-06
6.17012e-07
-7.16868e-06
6.31276e-07
-7.78782e-06
6.19136e-07
-8.36749e-06
5.79673e-07
-8.88326e-06
5.1577e-07
-9.31018e-06
4.26925e-07
-9.62684e-06
3.16653e-07
-9.82169e-06
1.94856e-07
-9.88208e-06
6.03873e-08
-9.8049e-06
-7.71775e-08
-9.59222e-06
-2.1268e-07
-9.24471e-06
-3.47513e-07
-8.76778e-06
-4.76926e-07
-8.16854e-06
-5.99241e-07
-7.462e-06
-7.06547e-07
-6.65851e-06
-8.03491e-07
-5.77299e-06
-8.85514e-07
-4.81997e-06
-9.53019e-07
-3.81545e-06
-1.00452e-06
-2.7752e-06
-1.04024e-06
-1.71571e-06
-1.05949e-06
-6.5105e-07
-1.06466e-06
4.05787e-07
-1.05684e-06
1.44259e-06
-1.0368e-06
2.44887e-06
-1.00628e-06
3.41453e-06
-9.6566e-07
4.33315e-06
-9.18626e-07
5.19767e-06
-8.64514e-07
6.00468e-06
-8.07014e-07
6.74962e-06
-7.4494e-07
7.43319e-06
-6.83572e-07
8.05311e-06
-6.19921e-07
8.61329e-06
-5.60176e-07
9.113e-06
-4.99711e-07
9.55894e-06
-4.45944e-07
9.95119e-06
-3.92247e-07
1.02989e-05
-3.47722e-07
1.06022e-05
-3.03265e-07
1.08725e-05
-2.70355e-07
1.11092e-05
-2.36652e-07
1.13263e-05
-2.17144e-07
1.15207e-05
-1.94326e-07
1.17094e-05
-1.88794e-07
1.18874e-05
-1.77926e-07
-1.951e-07
-1.11163e-08
-3.0956e-09
-6.48609e-08
5.74495e-08
-1.48165e-07
1.01923e-07
-2.52891e-07
1.32821e-07
-3.74224e-07
1.56171e-07
-5.09929e-07
1.76048e-07
-6.58469e-07
1.94028e-07
-8.18451e-07
2.10371e-07
-9.88539e-07
2.25083e-07
-1.16745e-06
2.3818e-07
-1.35398e-06
2.49708e-07
-1.54699e-06
2.59744e-07
-1.74545e-06
2.68384e-07
-1.94842e-06
2.75751e-07
-2.15511e-06
2.81988e-07
-2.36483e-06
2.87254e-07
-2.57707e-06
2.91721e-07
-2.79145e-06
2.95578e-07
-3.00775e-06
2.99028e-07
-3.22594e-06
3.02298e-07
-3.44615e-06
3.05637e-07
-3.66871e-06
3.09301e-07
-3.89414e-06
3.13541e-07
-4.12313e-06
3.18605e-07
-4.35654e-06
3.24741e-07
-4.59545e-06
3.32195e-07
-4.84107e-06
3.41196e-07
-5.09483e-06
3.51948e-07
-5.3583e-06
3.64646e-07
-5.63324e-06
3.79489e-07
-5.92159e-06
3.96717e-07
-6.22546e-06
4.1669e-07
-6.5472e-06
4.40005e-07
-6.88934e-06
4.67518e-07
-7.25446e-06
5.00245e-07
-7.64491e-06
5.39262e-07
-8.0624e-06
5.8557e-07
-8.50747e-06
6.39775e-07
-8.97883e-06
7.01712e-07
-9.47277e-06
7.69972e-07
-9.98262e-06
8.414e-07
-1.04984e-05
9.10639e-07
-1.1007e-05
9.70311e-07
-1.14923e-05
1.01121e-06
-1.19364e-05
1.02398e-06
-1.23209e-05
1.00153e-06
-1.2628e-05
9.38368e-07
-1.28408e-05
8.3201e-07
-1.29443e-05
6.83095e-07
-1.29248e-05
4.96287e-07
-1.27733e-05
2.75435e-07
-1.2474e-05
1.73214e-08
-1.20436e-05
-2.35522e-07
-1.14779e-05
-5.05292e-07
-1.07737e-05
-7.81398e-07
-9.93306e-06
-1.0533e-06
-8.96434e-06
-1.31623e-06
-7.87792e-06
-1.56335e-06
-6.68127e-06
-1.79589e-06
-5.39274e-06
-1.99508e-06
-4.02307e-06
-2.17316e-06
-2.58816e-06
-2.32042e-06
-1.10262e-06
-2.43856e-06
4.15999e-07
-2.52314e-06
1.95355e-06
-2.57779e-06
3.49661e-06
-2.60256e-06
5.03243e-06
-2.60048e-06
6.54703e-06
-2.57143e-06
8.02965e-06
-2.51942e-06
9.46966e-06
-2.44628e-06
1.08593e-05
-2.35534e-06
1.21908e-05
-2.25013e-06
1.34592e-05
-2.13291e-06
1.46604e-05
-2.00821e-06
1.57925e-05
-1.877e-06
1.68538e-05
-1.74483e-06
1.78448e-05
-1.61092e-06
1.87661e-05
-1.48149e-06
1.96202e-05
-1.35387e-06
2.04095e-05
-1.23524e-06
2.11381e-05
-1.12081e-06
2.18094e-05
-1.01908e-06
2.2429e-05
-9.22826e-07
2.30011e-05
-8.42461e-07
2.35322e-05
-7.67791e-07
2.40271e-05
-7.12034e-07
2.44939e-05
-6.61083e-07
2.49378e-05
-6.32701e-07
2.53668e-05
-6.06885e-07
-6.03656e-07
-4.99773e-08
4.68817e-08
-1.86242e-07
1.93715e-07
-3.68066e-07
2.83746e-07
-5.76576e-07
3.41331e-07
-8.0305e-07
3.82645e-07
-1.04514e-06
4.18137e-07
-1.30143e-06
4.50322e-07
-1.56952e-06
4.78455e-07
-1.8469e-06
5.02465e-07
-2.13127e-06
5.22552e-07
-2.42056e-06
5.38998e-07
-2.71295e-06
5.52135e-07
-3.00692e-06
5.62347e-07
-3.3012e-06
5.70038e-07
-3.59483e-06
5.75619e-07
-3.88707e-06
5.79494e-07
-4.17741e-06
5.8206e-07
-4.46556e-06
5.83726e-07
-4.75139e-06
5.84856e-07
-5.03494e-06
5.85846e-07
-5.31642e-06
5.87125e-07
-5.5962e-06
5.89081e-07
-5.87472e-06
5.92057e-07
-6.15247e-06
5.96352e-07
-6.42996e-06
6.02231e-07
-6.70769e-06
6.09934e-07
-6.98614e-06
6.19644e-07
-7.26564e-06
6.31445e-07
-7.54636e-06
6.45364e-07
-7.82826e-06
6.61386e-07
-8.11101e-06
6.79474e-07
-8.39387e-06
6.99548e-07
-8.67577e-06
7.21904e-07
-8.95522e-06
7.46965e-07
-9.23011e-06
7.75134e-07
-9.49749e-06
8.06641e-07
-9.75341e-06
8.41492e-07
-9.99271e-06
8.79073e-07
-1.02088e-05
9.17834e-07
-1.03939e-05
9.55077e-07
-1.05392e-05
9.86704e-07
-1.0634e-05
1.00544e-06
-1.0668e-05
1.00429e-06
-1.0631e-05
9.74212e-07
-1.05125e-05
9.055e-07
-1.03047e-05
7.93666e-07
-1.00011e-05
6.34771e-07
-9.59761e-06
4.28546e-07
-9.0888e-06
1.74288e-07
-8.47379e-06
-1.18721e-07
-7.75627e-06
-4.42086e-07
-6.94437e-06
-7.9458e-07
-6.01693e-06
-1.16296e-06
-4.98627e-06
-1.53595e-06
-3.85927e-06
-1.90839e-06
-2.64188e-06
-2.2707e-06
-1.33999e-06
-2.61811e-06
4.00466e-08
-2.94339e-06
1.47667e-06
-3.23252e-06
2.97182e-06
-3.49023e-06
4.51143e-06
-3.71276e-06
6.08193e-06
-3.89092e-06
7.67325e-06
-4.02988e-06
9.27219e-06
-4.12209e-06
1.08688e-05
-4.17443e-06
1.24489e-05
-4.1826e-06
1.40031e-05
-4.15475e-06
1.55201e-05
-4.08844e-06
1.6993e-05
-3.99227e-06
1.84126e-05
-3.86591e-06
1.97752e-05
-3.71794e-06
2.10743e-05
-3.5492e-06
2.2309e-05
-3.36763e-06
2.34754e-05
-3.17463e-06
2.45753e-05
-2.97691e-06
2.56066e-05
-2.77612e-06
2.65732e-05
-2.57751e-06
2.74745e-05
-2.38274e-06
2.8316e-05
-2.19543e-06
2.90981e-05
-2.01733e-06
2.98277e-05
-1.85044e-06
3.05056e-05
-1.69694e-06
3.11398e-05
-1.55699e-06
3.17311e-05
-1.43377e-06
3.22885e-05
-1.32523e-06
3.28129e-05
-1.23641e-06
3.33142e-05
-1.16243e-06
3.37926e-05
-1.11106e-06
3.42584e-05
-1.07269e-06
-1.06297e-06
-1.37937e-07
1.84819e-07
-3.91387e-07
4.47164e-07
-6.84057e-07
5.76416e-07
-9.93956e-07
6.5123e-07
-1.31906e-06
7.07746e-07
-1.65681e-06
7.55887e-07
-2.00228e-06
7.958e-07
-2.35087e-06
8.27041e-07
-2.69863e-06
8.50227e-07
-3.0426e-06
8.66521e-07
-3.38039e-06
8.76782e-07
-3.71011e-06
8.81854e-07
-4.03042e-06
8.82659e-07
-4.34038e-06
8.80005e-07
-4.63938e-06
8.74615e-07
-4.92703e-06
8.67144e-07
-5.20314e-06
8.58166e-07
-5.4676e-06
8.48192e-07
-5.72046e-06
8.37713e-07
-5.96181e-06
8.27199e-07
-6.19177e-06
8.17081e-07
-6.41042e-06
8.07726e-07
-6.61777e-06
7.9941e-07
-6.81374e-06
7.92323e-07
-6.99809e-06
7.86575e-07
-7.17039e-06
7.82235e-07
-7.33008e-06
7.79337e-07
-7.47634e-06
7.77708e-07
-7.60807e-06
7.77087e-07
-7.72382e-06
7.77144e-07
-7.82185e-06
7.77503e-07
-7.90007e-06
7.77771e-07
-7.9558e-06
7.77629e-07
-7.98582e-06
7.76986e-07
-7.9866e-06
7.75919e-07
-7.95395e-06
7.73983e-07
-7.88294e-06
7.70488e-07
-7.76798e-06
7.64108e-07
-7.6028e-06
7.52654e-07
-7.38048e-06
7.32762e-07
-7.09345e-06
6.99669e-07
-6.73571e-06
6.47708e-07
-6.30241e-06
5.7099e-07
-5.79055e-06
4.62351e-07
-5.1959e-06
3.10847e-07
-4.51677e-06
1.14534e-07
-3.75506e-06
-1.26935e-07
-2.91369e-06
-4.1283e-07
-1.99427e-06
-7.45125e-07
-9.97405e-07
-1.11559e-06
7.79635e-08
-1.51745e-06
1.22605e-06
-1.94267e-06
2.44294e-06
-2.37986e-06
3.72655e-06
-2.81956e-06
5.07397e-06
-3.25581e-06
6.47948e-06
-3.6762e-06
7.93787e-06
-4.07651e-06
9.43884e-06
-4.44435e-06
1.09815e-05
-4.7752e-06
1.25508e-05
-5.05948e-06
1.41383e-05
-5.30034e-06
1.57331e-05
-5.48566e-06
1.73246e-05
-5.62139e-06
1.89015e-05
-5.69904e-06
2.04545e-05
-5.72741e-06
2.19726e-05
-5.70063e-06
2.34481e-05
-5.6303e-06
2.48723e-05
-5.5126e-06
2.62404e-05
-5.36041e-06
2.75459e-05
-5.17144e-06
2.87872e-05
-4.95922e-06
2.99601e-05
-4.72209e-06
3.10657e-05
-4.4732e-06
3.21019e-05
-4.21081e-06
3.30719e-05
-3.94697e-06
3.39753e-05
-3.6795e-06
3.48169e-05
-3.41911e-06
3.55972e-05
-3.16307e-06
3.63223e-05
-2.92051e-06
3.69933e-05
-2.68837e-06
3.76171e-05
-2.47416e-06
3.8195e-05
-2.27487e-06
3.87343e-05
-2.09631e-06
3.92366e-05
-1.93607e-06
3.97094e-05
-1.79806e-06
4.01542e-05
-1.68121e-06
4.05789e-05
-1.58711e-06
4.09849e-05
-1.51699e-06
4.13821e-05
-1.46996e-06
-1.45275e-06
-1.94804e-07
3.79623e-07
-5.6482e-07
8.1718e-07
-9.824e-07
9.93997e-07
-1.4097e-06
1.07853e-06
-1.83069e-06
1.12874e-06
-2.23673e-06
1.16192e-06
-2.624e-06
1.18307e-06
-2.99136e-06
1.19441e-06
-3.337e-06
1.19586e-06
-3.65936e-06
1.18888e-06
-3.95769e-06
1.17511e-06
-4.23179e-06
1.15596e-06
-4.48185e-06
1.13271e-06
-4.70829e-06
1.10644e-06
-4.91171e-06
1.07804e-06
-5.09278e-06
1.04822e-06
-5.25219e-06
1.01758e-06
-5.39053e-06
9.86529e-07
-5.5083e-06
9.55488e-07
-5.60595e-06
9.24847e-07
-5.68379e-06
8.9492e-07
-5.74199e-06
8.65923e-07
-5.78052e-06
8.37944e-07
-5.79916e-06
8.10961e-07
-5.79744e-06
7.84851e-07
-5.77461e-06
7.59404e-07
-5.72981e-06
7.34547e-07
-5.66195e-06
7.0984e-07
-5.56958e-06
6.84719e-07
-5.451e-06
6.58561e-07
-5.30418e-06
6.30683e-07
-5.12676e-06
6.00356e-07
-4.91595e-06
5.66823e-07
-4.66821e-06
5.29244e-07
-4.38004e-06
4.87741e-07
-4.0474e-06
4.41348e-07
-3.66571e-06
3.88802e-07
-3.23001e-06
3.28403e-07
-2.73506e-06
2.57703e-07
-2.17557e-06
1.73276e-07
-1.54605e-06
7.01424e-08
-8.43679e-07
-5.46589e-08
-6.93047e-08
-2.03385e-07
7.82349e-07
-3.89302e-07
1.70743e-06
-6.14237e-07
2.70305e-06
-8.81079e-07
3.76751e-06
-1.1914e-06
4.89884e-06
-1.54415e-06
6.09186e-06
-1.93815e-06
7.34256e-06
-2.36628e-06
8.64785e-06
-2.82275e-06
1.00028e-05
-3.29766e-06
1.14063e-05
-3.78335e-06
1.2854e-05
-4.26719e-06
1.43414e-05
-4.74321e-06
1.58623e-05
-5.19715e-06
1.74099e-05
-5.6241e-06
1.89752e-05
-6.00964e-06
2.05511e-05
-6.35105e-06
2.21268e-05
-6.63522e-06
2.36915e-05
-6.86499e-06
2.52353e-05
-7.02947e-06
2.67484e-05
-7.13456e-06
2.82218e-05
-7.1724e-06
2.96475e-05
-7.15314e-06
3.10184e-05
-7.07151e-06
3.23291e-05
-6.94103e-06
3.35748e-05
-6.7583e-06
3.47533e-05
-6.53892e-06
3.58622e-05
-6.28029e-06
3.6902e-05
-5.99903e-06
3.78722e-05
-5.6923e-06
3.87756e-05
-5.37661e-06
3.9613e-05
-5.04814e-06
4.03886e-05
-4.72261e-06
4.11039e-05
-4.39485e-06
4.17644e-05
-4.0796e-06
4.23717e-05
-3.77032e-06
4.29318e-05
-3.48066e-06
4.34464e-05
-3.2029e-06
4.39219e-05
-2.94969e-06
4.43595e-05
-2.71246e-06
4.47662e-05
-2.50301e-06
4.51425e-05
-2.31233e-06
4.54958e-05
-2.1514e-06
4.58259e-05
-2.01129e-06
4.61409e-05
-1.90218e-06
4.64399e-05
-1.81592e-06
4.67318e-05
-1.76189e-06
-1.73818e-06
-4.21973e-07
8.01596e-07
-9.62325e-07
1.35753e-06
-1.45598e-06
1.48765e-06
-1.89135e-06
1.51389e-06
-2.28991e-06
1.5273e-06
-2.65656e-06
1.52858e-06
-2.98644e-06
1.51295e-06
-3.27329e-06
1.48125e-06
-3.51348e-06
1.43606e-06
-3.70901e-06
1.38441e-06
-3.86277e-06
1.32887e-06
-3.97763e-06
1.27082e-06
-4.05639e-06
1.21147e-06
-4.10168e-06
1.15173e-06
-4.1159e-06
1.09225e-06
-4.10115e-06
1.03347e-06
-4.05932e-06
9.7575e-07
-3.9919e-06
9.19106e-07
-3.90008e-06
8.63664e-07
-3.7848e-06
8.09574e-07
-3.64676e-06
7.56881e-07
-3.48637e-06
7.05526e-07
-3.30371e-06
6.55286e-07
-3.09856e-06
6.05815e-07
-2.87044e-06
5.5673e-07
-2.61841e-06
5.07373e-07
-2.34165e-06
4.57784e-07
-2.03886e-06
4.07056e-07
-1.7085e-06
3.54356e-07
-1.3488e-06
2.98866e-07
-9.57763e-07
2.39642e-07
-5.32984e-07
1.75577e-07
-7.15165e-08
1.05355e-07
4.30706e-07
2.70212e-08
9.75405e-07
-5.69574e-08
1.56625e-06
-1.49501e-07
2.20793e-06
-2.52872e-07
2.90477e-06
-3.68442e-07
3.66098e-06
-4.98502e-07
4.48031e-06
-6.46056e-07
5.36481e-06
-8.14354e-07
6.31741e-06
-1.00727e-06
7.34171e-06
-1.22768e-06
8.43493e-06
-1.48252e-06
9.59497e-06
-1.77428e-06
1.08185e-05
-2.10465e-06
1.21017e-05
-2.47457e-06
1.34396e-05
-2.88205e-06
1.48264e-05
-3.32495e-06
1.62567e-05
-3.79663e-06
1.77251e-05
-4.29109e-06
1.92253e-05
-4.79785e-06
2.07513e-05
-5.30938e-06
2.22966e-05
-5.81253e-06
2.3853e-05
-6.29962e-06
2.54122e-05
-6.75629e-06
2.69641e-05
-7.17602e-06
2.84993e-05
-7.54483e-06
3.00074e-05
-7.85918e-06
3.14791e-05
-8.10685e-06
3.29039e-05
-8.28981e-06
3.42742e-05
-8.39976e-06
3.55828e-05
-8.44315e-06
3.68247e-05
-8.41435e-06
3.79959e-05
-8.3243e-06
3.9094e-05
-8.16968e-06
4.01181e-05
-7.96511e-06
4.10684e-05
-7.70855e-06
4.19465e-05
-7.41701e-06
4.27546e-05
-7.08839e-06
4.34963e-05
-6.74074e-06
4.41748e-05
-6.37078e-06
4.47947e-05
-5.99659e-06
4.53596e-05
-5.61296e-06
4.58745e-05
-5.23752e-06
4.63425e-05
-4.86289e-06
4.67691e-05
-4.5062e-06
4.71566e-05
-4.15785e-06
4.75106e-05
-3.83462e-06
4.78325e-05
-3.52482e-06
4.8128e-05
-3.24516e-06
4.83976e-05
-2.98208e-06
4.86472e-05
-2.75256e-06
4.88762e-05
-2.54142e-06
4.9091e-05
-2.36618e-06
4.92901e-05
-2.21034e-06
4.94802e-05
-2.09226e-06
4.96587e-05
-1.99439e-06
4.98331e-05
-1.93633e-06
-1.90452e-06
-2.66693e-07
1.06829e-06
-8.63665e-07
1.9545e-06
-1.48575e-06
2.10974e-06
-2.00713e-06
2.03527e-06
-2.40022e-06
1.9204e-06
-2.66755e-06
1.7959e-06
-2.82666e-06
1.67206e-06
-2.89763e-06
1.55222e-06
-2.8978e-06
1.43623e-06
-2.83809e-06
1.32471e-06
-2.72678e-06
1.21755e-06
-2.5704e-06
1.11444e-06
-2.37456e-06
1.01564e-06
-2.14404e-06
9.21222e-07
-1.88288e-06
8.31081e-07
-1.59434e-06
7.44936e-07
-1.28122e-06
6.62629e-07
-9.45501e-07
5.83387e-07
-5.88813e-07
5.06976e-07
-2.12408e-07
4.33169e-07
1.82901e-07
3.61572e-07
5.96718e-07
2.9171e-07
1.02915e-06
2.22856e-07
1.48064e-06
1.54323e-07
1.9521e-06
8.52682e-08
2.4455e-06
1.39702e-08
2.96044e-06
-5.71524e-08
3.49903e-06
-1.31531e-07
4.0634e-06
-2.10019e-07
4.65566e-06
-2.93392e-07
5.27806e-06
-3.82757e-07
5.93303e-06
-4.794e-07
6.62297e-06
-5.84581e-07
7.34942e-06
-6.99424e-07
8.11717e-06
-8.24715e-07
8.92978e-06
-9.62111e-07
9.79023e-06
-1.11332e-06
1.0702e-05
-1.28022e-06
1.16683e-05
-1.46476e-06
1.26918e-05
-1.66954e-06
1.37745e-05
-1.89709e-06
1.49178e-05
-2.15061e-06
1.61225e-05
-2.43239e-06
1.73858e-05
-2.74577e-06
1.87043e-05
-3.09275e-06
2.00735e-05
-3.47392e-06
2.14877e-05
-3.88872e-06
2.29402e-05
-4.33452e-06
2.44229e-05
-4.80765e-06
2.59276e-05
-5.30136e-06
2.74448e-05
-5.80833e-06
2.89654e-05
-6.31841e-06
3.04788e-05
-6.82278e-06
3.19753e-05
-7.30907e-06
3.34438e-05
-7.76809e-06
3.48741e-05
-8.18656e-06
3.6255e-05
-8.55698e-06
3.75779e-05
-8.86773e-06
3.88336e-05
-9.11485e-06
4.00153e-05
-9.2886e-06
4.11167e-05
-9.39115e-06
4.21347e-05
-9.41778e-06
4.30678e-05
-9.37625e-06
4.39171e-05
-9.26368e-06
4.46843e-05
-9.09148e-06
4.53731e-05
-8.85849e-06
4.59878e-05
-8.57979e-06
4.65339e-05
-8.25464e-06
4.70172e-05
-7.90029e-06
4.74437e-05
-7.51493e-06
4.78197e-05
-7.11675e-06
4.81508e-05
-6.70183e-06
4.84427e-05
-6.28855e-06
4.87001e-05
-5.87029e-06
4.8928e-05
-5.46543e-06
4.91296e-05
-5.06456e-06
4.93096e-05
-4.68615e-06
4.94697e-05
-4.31801e-06
4.96141e-05
-3.97898e-06
4.97435e-05
-3.65419e-06
4.98616e-05
-3.36324e-06
4.99682e-05
-3.08869e-06
5.00669e-05
-2.85133e-06
5.01568e-05
-2.63125e-06
5.02415e-05
-2.45087e-06
5.0319e-05
-2.28793e-06
5.03937e-05
-2.16689e-06
5.04624e-05
-2.06315e-06
5.05296e-05
-2.00345e-06
-1.96363e-06
-1.49761e-06
2.5659e-06
-1.9502e-06
2.40709e-06
-2.11704e-06
2.27658e-06
-2.13483e-06
2.05306e-06
-2.02293e-06
1.8085e-06
-1.80491e-06
1.57788e-06
-1.49989e-06
1.36705e-06
-1.12216e-06
1.17448e-06
-6.84413e-07
9.98484e-07
-1.98865e-07
8.39162e-07
3.25227e-07
6.93456e-07
8.8026e-07
5.59408e-07
1.45965e-06
4.36246e-07
2.05837e-06
3.22496e-07
2.67267e-06
2.16789e-07
3.29946e-06
1.18139e-07
3.93583e-06
2.62631e-08
4.58215e-06
-6.29315e-08
5.23693e-06
-1.47806e-07
5.89914e-06
-2.2904e-07
6.56865e-06
-3.07934e-07
7.24529e-06
-3.84934e-07
7.93036e-06
-4.62215e-07
8.62508e-06
-5.40397e-07
9.33067e-06
-6.2032e-07
1.00477e-05
-7.03027e-07
1.07797e-05
-7.89212e-07
1.15286e-05
-8.80361e-07
1.22963e-05
-9.77723e-07
1.30853e-05
-1.08247e-06
1.38983e-05
-1.19569e-06
1.47376e-05
-1.31869e-06
1.56056e-05
-1.45262e-06
1.6505e-05
-1.59886e-06
1.74388e-05
-1.75846e-06
1.84095e-05
-1.9328e-06
1.94194e-05
-2.12324e-06
2.04707e-05
-2.33158e-06
2.15653e-05
-2.55934e-06
2.27044e-05
-2.80858e-06
2.38882e-05
-3.08097e-06
2.51163e-05
-3.37863e-06
2.63865e-05
-3.70266e-06
2.76952e-05
-4.05444e-06
2.90368e-05
-4.43434e-06
3.04047e-05
-4.84184e-06
3.17906e-05
-5.27463e-06
3.31854e-05
-5.7293e-06
3.45789e-05
-6.20118e-06
3.59601e-05
-6.68255e-06
3.73165e-05
-7.16469e-06
3.86367e-05
-7.63864e-06
3.99085e-05
-8.09459e-06
4.11212e-05
-8.5218e-06
4.22637e-05
-8.91057e-06
4.33277e-05
-9.25056e-06
4.43051e-05
-9.5344e-06
4.51913e-05
-9.75391e-06
4.59822e-05
-9.90575e-06
4.66782e-05
-9.98459e-06
4.7279e-05
-9.99197e-06
4.77884e-05
-9.92719e-06
4.82122e-05
-9.80002e-06
4.85582e-05
-9.60965e-06
4.88336e-05
-9.36692e-06
4.90477e-05
-9.07257e-06
4.92087e-05
-8.7408e-06
4.93257e-05
-8.37158e-06
4.94064e-05
-7.98101e-06
4.94583e-05
-7.5669e-06
4.94881e-05
-7.14647e-06
4.95008e-05
-6.71457e-06
4.95015e-05
-6.28921e-06
4.94932e-05
-5.862e-06
4.94795e-05
-5.45181e-06
4.94619e-05
-5.04691e-06
4.9443e-05
-4.66727e-06
4.94228e-05
-4.29777e-06
4.94035e-05
-3.95973e-06
4.93841e-05
-3.63472e-06
4.93666e-05
-3.34582e-06
4.93492e-05
-3.07126e-06
4.93342e-05
-2.8363e-06
4.93188e-05
-2.61584e-06
4.93056e-05
-2.43771e-06
4.92912e-05
-2.27349e-06
4.92784e-05
-2.15412e-06
4.92632e-05
-2.04794e-06
4.92493e-05
-1.98955e-06
-1.94094e-06
-8.97485e-07
3.46339e-06
-7.43704e-07
2.25331e-06
-2.52517e-07
1.78539e-06
4.61313e-07
1.33923e-06
1.3327e-06
9.37112e-07
2.29558e-06
6.15008e-07
3.30366e-06
3.58962e-07
4.32975e-06
1.484e-07
5.35912e-06
-3.08928e-08
6.37796e-06
-1.79681e-07
7.38726e-06
-3.15839e-07
8.38536e-06
-4.38689e-07
9.36852e-06
-5.46912e-07
1.03356e-05
-6.44636e-07
1.12867e-05
-7.34279e-07
1.2222e-05
-8.17181e-07
1.31429e-05
-8.94566e-07
1.40483e-05
-9.68361e-07
1.49397e-05
-1.03919e-06
1.58184e-05
-1.10771e-06
1.66856e-05
-1.17521e-06
1.7544e-05
-1.24329e-06
1.83951e-05
-1.31333e-06
1.92411e-05
-1.38644e-06
2.00844e-05
-1.46361e-06
2.09274e-05
-1.54604e-06
2.17731e-05
-1.63484e-06
2.26239e-05
-1.73118e-06
2.34824e-05
-1.83627e-06
2.43513e-05
-1.95136e-06
2.52331e-05
-2.07744e-06
2.613e-05
-2.21558e-06
2.70442e-05
-2.3668e-06
2.79776e-05
-2.53227e-06
2.8932e-05
-2.71292e-06
2.99091e-05
-2.90983e-06
3.09098e-05
-3.12393e-06
3.19346e-05
-3.35645e-06
3.29836e-05
-3.60833e-06
3.40558e-05
-3.88075e-06
3.51496e-05
-4.17476e-06
3.62623e-05
-4.49136e-06
3.73894e-05
-4.82975e-06
3.85251e-05
-5.19018e-06
3.96623e-05
-5.57146e-06
4.07922e-05
-5.97182e-06
4.19053e-05
-6.38772e-06
4.2991e-05
-6.81498e-06
4.40373e-05
-7.24744e-06
4.50329e-05
-7.67817e-06
4.59668e-05
-8.09861e-06
4.68287e-05
-8.50055e-06
4.76089e-05
-8.87479e-06
4.83001e-05
-9.21296e-06
4.88961e-05
-9.50664e-06
4.93945e-05
-9.74892e-06
4.97939e-05
-9.93383e-06
5.0097e-05
-1.0057e-05
5.03073e-05
-1.0116e-05
5.04323e-05
-1.01096e-05
5.04802e-05
-1.00398e-05
5.04616e-05
-9.90861e-06
5.03862e-05
-9.7246e-06
5.02661e-05
-9.48964e-06
5.01111e-05
-9.21189e-06
4.99321e-05
-8.89352e-06
4.97366e-05
-8.54537e-06
4.95333e-05
-8.16821e-06
4.93271e-05
-7.77486e-06
4.91237e-05
-7.36349e-06
4.89258e-05
-6.94855e-06
4.8736e-05
-6.52481e-06
4.85554e-05
-6.10862e-06
4.83846e-05
-5.6912e-06
4.8224e-05
-5.29121e-06
4.8073e-05
-4.89583e-06
4.79318e-05
-4.52616e-06
4.7799e-05
-4.16488e-06
4.76752e-05
-3.83602e-06
4.7558e-05
-3.5175e-06
4.74491e-05
-3.23684e-06
4.73447e-05
-2.96687e-06
4.72475e-05
-2.73916e-06
4.71528e-05
-2.52112e-06
4.70641e-05
-2.34904e-06
4.69753e-05
-2.18465e-06
4.68909e-05
-2.06977e-06
4.68032e-05
-1.9602e-06
4.67177e-05
-1.90405e-06
-1.84954e-06
3.6608e-06
-1.97412e-07
6.38935e-06
-4.75237e-07
8.8038e-06
-6.29068e-07
1.0929e-05
-7.85978e-07
1.28079e-05
-9.41764e-07
1.45046e-05
-1.08171e-06
1.60638e-05
-1.20027e-06
1.75025e-05
-1.29027e-06
1.88471e-05
-1.37553e-06
2.01192e-05
-1.45172e-06
2.13227e-05
-1.51939e-06
2.24646e-05
-1.58053e-06
2.35535e-05
-1.63584e-06
2.45951e-05
-1.68626e-06
2.55936e-05
-1.73278e-06
2.65528e-05
-1.77639e-06
2.74762e-05
-1.81798e-06
2.83665e-05
-1.85858e-06
2.92265e-05
-1.89924e-06
3.00597e-05
-1.94088e-06
3.08691e-05
-1.98461e-06
3.16575e-05
-2.03174e-06
3.24277e-05
-2.0835e-06
3.31823e-05
-2.14109e-06
3.39243e-05
-2.20558e-06
3.46564e-05
-2.27807e-06
3.53811e-05
-2.35958e-06
3.6101e-05
-2.4511e-06
3.68184e-05
-2.55366e-06
3.75356e-05
-2.66857e-06
3.82544e-05
-2.79627e-06
3.89763e-05
-2.93748e-06
3.97026e-05
-3.09306e-06
4.04341e-05
-3.26377e-06
4.11714e-05
-3.4502e-06
4.19145e-05
-3.65297e-06
4.26631e-05
-3.87256e-06
4.34162e-05
-4.10949e-06
4.4172e-05
-4.36412e-06
4.4928e-05
-4.63676e-06
4.56806e-05
-4.92741e-06
4.6425e-05
-5.23576e-06
4.71561e-05
-5.5608e-06
4.78672e-05
-5.90129e-06
4.85509e-05
-6.25514e-06
4.91988e-05
-6.6197e-06
4.98021e-05
-6.9911e-06
5.0352e-05
-7.36481e-06
5.08395e-05
-7.735e-06
5.12569e-05
-8.09556e-06
5.15976e-05
-8.43928e-06
5.18564e-05
-8.75935e-06
5.203e-05
-9.04842e-06
5.21176e-05
-9.30053e-06
5.21208e-05
-9.50987e-06
5.20442e-05
-9.67233e-06
5.18942e-05
-9.78384e-06
5.16798e-05
-9.84258e-06
5.14106e-05
-9.84679e-06
5.10978e-05
-9.7969e-06
5.07528e-05
-9.6947e-06
5.03874e-05
-9.54323e-06
5.00093e-05
-9.34652e-06
4.9628e-05
-9.10839e-06
4.92493e-05
-8.83316e-06
4.88796e-05
-8.52378e-06
4.85204e-05
-8.18617e-06
4.81752e-05
-7.82303e-06
4.7843e-05
-7.44263e-06
4.75256e-05
-7.04613e-06
4.72205e-05
-6.64347e-06
4.69286e-05
-6.23291e-06
4.66468e-05
-5.82678e-06
4.63759e-05
-5.42026e-06
4.61133e-05
-5.02861e-06
4.58601e-05
-4.64262e-06
4.56145e-05
-4.2806e-06
4.53774e-05
-3.92782e-06
4.5148e-05
-3.60656e-06
4.49263e-05
-3.29582e-06
4.47124e-05
-3.02295e-06
4.45052e-05
-2.75964e-06
4.43056e-05
-2.53962e-06
4.41107e-05
-2.32622e-06
4.39229e-05
-2.16117e-06
4.37365e-05
-1.99829e-06
4.35558e-05
-1.88906e-06
4.33718e-05
-1.77623e-06
4.31905e-05
-1.72274e-06
-1.66398e-06
3.86193e-05
8.28306e-09
3.85902e-05
-4.4613e-07
3.87325e-05
-7.71412e-07
3.89615e-05
-1.01495e-06
3.92391e-05
-1.21939e-06
3.95596e-05
-1.4022e-06
3.99242e-05
-1.56486e-06
4.03345e-05
-1.70056e-06
4.07703e-05
-1.81139e-06
4.12212e-05
-1.90263e-06
4.16807e-05
-1.9788e-06
4.21429e-05
-2.04281e-06
4.2604e-05
-2.09693e-06
4.30607e-05
-2.14298e-06
4.35106e-05
-2.18261e-06
4.39516e-05
-2.21744e-06
4.43827e-05
-2.24901e-06
4.48029e-05
-2.27885e-06
4.52121e-05
-2.30846e-06
4.56106e-05
-2.33932e-06
4.59988e-05
-2.37281e-06
4.63774e-05
-2.41036e-06
4.67472e-05
-2.45332e-06
4.71092e-05
-2.50304e-06
4.74643e-05
-2.56071e-06
4.78137e-05
-2.62745e-06
4.81583e-05
-2.70424e-06
4.84992e-05
-2.79203e-06
4.88373e-05
-2.89167e-06
4.91726e-05
-3.00396e-06
4.95059e-05
-3.12949e-06
4.98372e-05
-3.26877e-06
5.01664e-05
-3.42229e-06
5.04931e-05
-3.59048e-06
5.08165e-05
-3.77365e-06
5.11356e-05
-3.97202e-06
5.14487e-05
-4.18571e-06
5.1754e-05
-4.41474e-06
5.20489e-05
-4.659e-06
5.23303e-05
-4.91818e-06
5.25946e-05
-5.19173e-06
5.28376e-05
-5.47873e-06
5.30547e-05
-5.7779e-06
5.32408e-05
-6.08744e-06
5.33908e-05
-6.40507e-06
5.34991e-05
-6.728e-06
5.35607e-05
-7.05276e-06
5.35711e-05
-7.37522e-06
5.35268e-05
-7.69066e-06
5.34253e-05
-7.99404e-06
5.32659e-05
-8.27994e-06
5.30496e-05
-8.54303e-06
5.2779e-05
-8.7778e-06
5.24581e-05
-8.97967e-06
5.20937e-05
-9.14546e-06
5.16931e-05
-9.2717e-06
5.12646e-05
-9.35533e-06
5.08167e-05
-9.39463e-06
5.03573e-05
-9.3874e-06
4.98934e-05
-9.33307e-06
4.943e-05
-9.23125e-06
4.89706e-05
-9.08389e-06
4.85166e-05
-8.89249e-06
4.80688e-05
-8.66058e-06
4.76259e-05
-8.39031e-06
4.71877e-05
-8.08549e-06
4.67507e-05
-7.74921e-06
4.63145e-05
-7.38681e-06
4.58759e-05
-7.00402e-06
4.54361e-05
-6.60637e-06
4.49927e-05
-6.20011e-06
4.45488e-05
-5.78898e-06
4.41024e-05
-5.38037e-06
4.36582e-05
-4.97611e-06
4.32147e-05
-4.58512e-06
4.27778e-05
-4.20567e-06
4.23455e-05
-3.84831e-06
4.19242e-05
-3.50652e-06
4.15113e-05
-3.19366e-06
4.11128e-05
-2.89733e-06
4.07252e-05
-2.63532e-06
4.03534e-05
-2.38788e-06
3.9993e-05
-2.17922e-06
3.96474e-05
-1.98058e-06
3.93119e-05
-1.82564e-06
3.89878e-05
-1.67421e-06
3.86713e-05
-1.57253e-06
3.83606e-05
-1.46556e-06
3.80537e-05
-1.4159e-06
-1.35305e-06
5.29895e-05
8.58948e-08
5.2897e-05
-3.53613e-07
5.28692e-05
-7.43591e-07
5.2894e-05
-1.03979e-06
5.29406e-05
-1.26598e-06
5.29898e-05
-1.45139e-06
5.30379e-05
-1.61295e-06
5.30925e-05
-1.75514e-06
5.31582e-05
-1.87716e-06
5.32347e-05
-1.97906e-06
5.33186e-05
-2.06272e-06
5.34067e-05
-2.13095e-06
5.34965e-05
-2.18669e-06
5.3586e-05
-2.23253e-06
5.3674e-05
-2.27061e-06
5.37595e-05
-2.30287e-06
5.38415e-05
-2.33108e-06
5.39197e-05
-2.35698e-06
5.39934e-05
-2.38224e-06
5.40627e-05
-2.40854e-06
5.41273e-05
-2.43743e-06
5.41874e-05
-2.47044e-06
5.4243e-05
-2.50898e-06
5.42944e-05
-2.55444e-06
5.43417e-05
-2.60803e-06
5.43852e-05
-2.67087e-06
5.44248e-05
-2.74392e-06
5.44609e-05
-2.82805e-06
5.44932e-05
-2.92396e-06
5.45215e-05
-3.0323e-06
5.45456e-05
-3.15359e-06
5.45651e-05
-3.28825e-06
5.45794e-05
-3.43658e-06
5.45877e-05
-3.59881e-06
5.45891e-05
-3.77508e-06
5.45826e-05
-3.96544e-06
5.45666e-05
-4.1698e-06
5.45399e-05
-4.388e-06
5.45006e-05
-4.6197e-06
5.44468e-05
-4.86439e-06
5.43764e-05
-5.12133e-06
5.42872e-05
-5.3895e-06
5.41768e-05
-5.66756e-06
5.4043e-05
-5.95357e-06
5.38833e-05
-6.24539e-06
5.3696e-05
-6.5407e-06
5.34796e-05
-6.83637e-06
5.32332e-05
-7.12877e-06
5.29565e-05
-7.41399e-06
5.265e-05
-7.6876e-06
5.23152e-05
-7.94514e-06
5.19541e-05
-8.18185e-06
5.15694e-05
-8.39313e-06
5.11642e-05
-8.57451e-06
5.0741e-05
-8.72224e-06
5.03019e-05
-8.8326e-06
4.98489e-05
-8.90231e-06
4.93828e-05
-8.92861e-06
4.89038e-05
-8.90834e-06
4.84098e-05
-8.83906e-06
4.78984e-05
-8.71987e-06
4.73666e-05
-8.55209e-06
4.68116e-05
-8.33751e-06
4.623e-05
-8.07894e-06
4.56194e-05
-7.77977e-06
4.49799e-05
-7.44596e-06
4.43118e-05
-7.08111e-06
4.36172e-05
-6.69221e-06
4.28986e-05
-6.28543e-06
4.21609e-05
-5.86866e-06
4.14082e-05
-5.44738e-06
4.06478e-05
-5.02861e-06
3.98846e-05
-4.61711e-06
3.91271e-05
-4.21862e-06
3.83786e-05
-3.83668e-06
3.76478e-05
-3.47484e-06
3.69355e-05
-3.13605e-06
3.62504e-05
-2.82137e-06
3.55904e-05
-2.53362e-06
3.49636e-05
-2.27054e-06
3.43644e-05
-2.03619e-06
3.38011e-05
-1.82455e-06
3.32639e-05
-1.64199e-06
3.27607e-05
-1.47743e-06
3.22789e-05
-1.34382e-06
3.18268e-05
-1.22211e-06
3.1389e-05
-1.13468e-06
3.09743e-05
-1.05089e-06
3.05659e-05
-1.00749e-06
-9.52898e-07
5.43245e-05
-2.3437e-07
5.45059e-05
-5.35029e-07
5.46099e-05
-8.47628e-07
5.46973e-05
-1.12721e-06
5.47843e-05