/*--------------------------------*- C++ -*----------------------------------*\
| =========                 |                                                 |
| \\      /  F ield         | OpenFOAM: The Open Source CFD Toolbox           |
|  \\    /   O peration     | Version:  2306                                  |
|   \\  /    A nd           | Website:  www.openfoam.com                      |
|    \\/     M anipulation  |                                                 |
\*---------------------------------------------------------------------------*/
FoamFile
{
    version     2.0;
    format      ascii;
    arch        "LSB;label=32;scalar=64";
    class       volScalarField;
    location    "5";
    object      p;
}
// * * * * * * * * * * * * * * * * * * * * * * * * * * * * * * * * * * * * * //

dimensions      [0 2 -2 0 0 0 0];

internalField   nonuniform List<scalar> 
1900
(
0.0553408
0.0311206
0.0107297
-0.0046093
-0.0156272
-0.0261791
-0.036616
-0.0487738
-0.0613198
-0.0753621
0.0260798
0.0178817
0.00656686
-0.00498439
-0.0160068
-0.026192
-0.0366212
-0.0471296
-0.0586203
-0.0696684
0.016985
0.0124948
0.00498018
-0.0043866
-0.0144684
-0.024445
-0.0342213
-0.0437705
-0.0531936
-0.0622738
0.0112819
0.00820884
0.00255969
-0.00508764
-0.0139378
-0.0231763
-0.0323651
-0.0412766
-0.0498666
-0.0580242
0.00905524
0.00651997
0.00178153
-0.00486621
-0.0128445
-0.0214473
-0.0301213
-0.038544
-0.0465664
-0.0541
0.00968694
0.00720607
0.00259512
-0.00387027
-0.0116093
-0.0199135
-0.0282244
-0.0362248
-0.043791
-0.0508942
0.0131401
0.0101938
0.00491209
-0.0021719
-0.0102334
-0.0185219
-0.026572
-0.0342063
-0.041417
-0.0482392
0.0198371
0.0155412
0.00864262
0.000172447
-0.00864934
-0.0170762
-0.0249125
-0.0322521
-0.0392448
-0.0459527
0.0299762
0.0218765
0.0114396
0.000977089
-0.00833205
-0.0164466
-0.0238189
-0.0308721
-0.0377698
-0.0444721
0.0588257
0.0361527
0.0164447
0.00238031
-0.00727933
-0.0149775
-0.0222104
-0.0294334
-0.0365965
-0.0434946
-0.0985402
-0.0985737
-0.0986186
-0.0986727
-0.0987329
-0.098799
-0.0988703
-0.0989459
-0.0990244
-0.0991041
-0.0991835
-0.0992607
-0.099334
-0.0994016
-0.0994618
-0.0995129
-0.0995533
-0.0995815
-0.0995961
-0.0995958
-0.0995795
-0.0995462
-0.0994951
-0.0994254
-0.0993367
-0.0992285
-0.0991003
-0.098952
-0.0987833
-0.0985939
-0.0983834
-0.0981514
-0.0978975
-0.097621
-0.097321
-0.0969965
-0.0966458
-0.0962662
-0.0958538
-0.0954023
-0.0949025
-0.0943414
-0.0937008
-0.0929577
-0.0920836
-0.0910453
-0.0898062
-0.0883262
-0.0865617
-0.0844637
-0.0819777
-0.0790447
-0.0756026
-0.0715904
-0.0669585
-0.0616734
-0.055724
-0.0491355
-0.041963
-0.0342839
-0.026203
-0.0178542
-0.0093919
-0.000972282
0.00724268
0.0150971
0.022445
0.0291657
0.0351445
0.040315
0.0446165
0.0480345
0.0505537
0.0522059
0.0530122
0.0530379
0.0523249
0.0509576
0.0489824
0.04649
0.0435177
0.040154
0.0364168
0.032389
0.0280607
0.0235129
0.0186914
0.0136957
0.00839029
0.00296309
-0.0985356
-0.0985673
-0.0985943
-0.0986358
-0.0986869
-0.0987463
-0.0988124
-0.0988835
-0.098958
-0.0990344
-0.0991109
-0.0991858
-0.0992572
-0.0993233
-0.0993824
-0.0994327
-0.0994725
-0.0995003
-0.0995147
-0.0995143
-0.0994979
-0.0994645
-0.0994132
-0.0993431
-0.0992537
-0.0991444
-0.0990148
-0.0988644
-0.0986929
-0.0985
-0.0982853
-0.0980481
-0.0977878
-0.0975036
-0.0971941
-0.0968581
-0.0964933
-0.0960971
-0.0956653
-0.0951922
-0.0946697
-0.0940868
-0.0934292
-0.0926784
-0.091811
-0.0907989
-0.089609
-0.0882035
-0.0865386
-0.0845611
-0.0822084
-0.0794098
-0.0760917
-0.0721823
-0.0676342
-0.0624434
-0.0565929
-0.0500876
-0.0429679
-0.0353195
-0.0272509
-0.0188963
-0.0104161
-0.00197056
0.00627266
0.0141554
0.0215238
0.0282822
0.0342719
0.0394585
0.0437722
0.0472032
0.0497328
0.0513975
0.0522135
0.0522544
0.0515543
0.0502082
0.0482518
0.0457895
0.042844
0.0395209
0.035819
0.031842
0.0275546
0.0230637
0.0182906
0.0133567
0.00814352
0.00282366
-0.0984182
-0.0984995
-0.098545
-0.0985984
-0.0986545
-0.0987158
-0.0987836
-0.0988566
-0.0989335
-0.0990126
-0.0990922
-0.0991704
-0.0992453
-0.099315
-0.0993777
-0.0994315
-0.0994747
-0.0995057
-0.099523
-0.0995251
-0.0995108
-0.099479
-0.0994287
-0.0993593
-0.09927
-0.0991603
-0.0990299
-0.0988784
-0.0987057
-0.0985115
-0.0982957
-0.0980579
-0.0977975
-0.0975135
-0.0972048
-0.0968698
-0.0965063
-0.0961113
-0.0956806
-0.0952085
-0.094688
-0.0941104
-0.0934649
-0.0927381
-0.0919127
-0.090965
-0.0898634
-0.0885687
-0.0870341
-0.0851994
-0.082988
-0.0803216
-0.0771445
-0.0733742
-0.0689358
-0.0637871
-0.0579358
-0.051413
-0.0442714
-0.0366032
-0.0285171
-0.0201239
-0.0116458
-0.00320774
0.00502022
0.0128889
0.0202395
0.0269637
0.0329319
0.0380899
0.0423727
0.0457747
0.048277
0.0499213
0.050723
0.0507606
0.0500664
0.04874
0.0468144
0.0443973
0.0415094
0.0382579
0.0346417
0.0307637
0.0265946
0.0222338
0.0176216
0.0128602
0.00786605
0.00275593
-0.0985
-0.0985739
-0.0985782
-0.0986041
-0.0986497
-0.0987118
-0.0987851
-0.0988657
-0.098951
-0.0990388
-0.0991269
-0.0992132
-0.0992955
-0.099372
-0.0994406
-0.0994995
-0.0995471
-0.0995815
-0.0996015
-0.0996054
-0.0995922
-0.0995607
-0.0995101
-0.0994395
-0.0993484
-0.0992362
-0.0991027
-0.0989476
-0.0987711
-0.0985731
-0.0983538
-0.0981129
-0.0978501
-0.0975644
-0.0972545
-0.0969187
-0.0965552
-0.0961611
-0.0957329
-0.0952659
-0.0947537
-0.0941889
-0.0935638
-0.0928695
-0.0920916
-0.091208
-0.0901847
-0.0889783
-0.087544
-0.0858176
-0.0837152
-0.0811493
-0.0780249
-0.0742953
-0.0698889
-0.0647793
-0.0589629
-0.0524733
-0.0453674
-0.0377415
-0.029709
-0.0214079
-0.013016
-0.00468729
0.00341226
0.0111367
0.0183335
0.0248943
0.0307068
0.0357131
0.0398556
0.0431311
0.0455278
0.0470887
0.0478354
0.0478448
0.0471551
0.0458613
0.0440023
0.0416783
0.038917
0.0358152
0.0323819
0.0287062
0.024775
0.0206704
0.016356
0.0119099
0.00727348
0.00252641
-0.0981746
-0.0983799
-0.0984707
-0.0985747
-0.0986734
-0.0987667
-0.0988593
-0.0989544
-0.0990519
-0.0991499
-0.0992467
-0.0993402
-0.0994286
-0.0995097
-0.0995818
-0.0996432
-0.0996921
-0.099727
-0.0997463
-0.0997486
-0.0997329
-0.099698
-0.0996433
-0.099568
-0.0994718
-0.0993542
-0.0992149
-0.0990541
-0.0988722
-0.0986695
-0.0984463
-0.0982029
-0.0979389
-0.0976531
-0.0973436
-0.0970091
-0.0966479
-0.0962576
-0.0958346
-0.0953748
-0.0948722
-0.0943198
-0.0937122
-0.0930436
-0.0922974
-0.0914526
-0.0904728
-0.0893081
-0.087896
-0.0861807
-0.0840811
-0.0815152
-0.0783976
-0.0746674
-0.0702671
-0.0651755
-0.059395
-0.052965
-0.0459499
-0.0384479
-0.0305795
-0.0224851
-0.0143264
-0.00626309
0.00154574
0.00895845
0.0158371
0.0220765
0.027581
0.0322958
0.036176
0.0392206
0.0414293
0.0428449
0.0434984
0.0434619
0.0427816
0.0415435
0.0397945
0.0376219
0.0350629
0.0321988
0.0290504
0.0256899
0.0221196
0.0184028
0.0145233
0.0105384
0.00641576
0.00221508
-0.099006
-0.0990288
-0.0989277
-0.0988829
-0.0988935
-0.0989513
-0.0990392
-0.0991401
-0.099243
-0.0993447
-0.0994429
-0.099536
-0.0996221
-0.0996998
-0.0997672
-0.099823
-0.0998658
-0.0998941
-0.0999065
-0.0999016
-0.0998784
-0.0998361
-0.0997739
-0.0996915
-0.0995885
-0.0994645
-0.0993191
-0.0991528
-0.0989662
-0.0987596
-0.0985335
-0.098288
-0.098023
-0.0977367
-0.0974268
-0.0970942
-0.0967374
-0.0963524
-0.0959357
-0.095483
-0.0949889
-0.0944454
-0.0938406
-0.0931646
-0.0924046
-0.0915369
-0.0905228
-0.0893162
-0.0878569
-0.0860825
-0.083915
-0.0812793
-0.0780984
-0.0743169
-0.069892
-0.0648102
-0.0590823
-0.0527543
-0.0458976
-0.0386145
-0.0310269
-0.0232756
-0.0155108
-0.00788556
-0.000545858
0.00637584
0.0127602
0.0185113
0.023552
0.0278357
0.0313339
0.0340496
0.0359964
0.0372162
0.0377502
0.037664
0.0370113
0.0358664
0.0342825
0.0323323
0.0300597
0.0275294
0.0247711
0.0218393
0.0187484
0.0155432
0.0122237
0.00882911
0.0053489
0.00182299
-0.0976813
-0.098327
-0.0985298
-0.0987861
-0.0990014
-0.0991643
-0.0992864
-0.0993873
-0.0994801
-0.0995683
-0.0996521
-0.0997304
-0.0998016
-0.0998647
-0.0999181
-0.0999606
-0.099991
-0.100008
-0.10001
-0.0999961
-0.0999644
-0.0999143
-0.0998451
-0.0997562
-0.0996474
-0.0995179
-0.0993671
-0.0991973
-0.0990083
-0.0988001
-0.098573
-0.0983271
-0.0980623
-0.0977771
-0.0974678
-0.0971294
-0.0967624
-0.0963655
-0.0959337
-0.0954613
-0.0949407
-0.0943639
-0.0937197
-0.0929956
-0.0921723
-0.0912239
-0.0901115
-0.0887889
-0.0871978
-0.0852772
-0.0829588
-0.0801781
-0.0768734
-0.0730003
-0.0685304
-0.0634619
-0.0578165
-0.0516481
-0.0450344
-0.0380804
-0.0309058
-0.023647
-0.0164424
-0.00943164
-0.00274122
0.0035136
0.00923623
0.014347
0.0187898
0.0225308
0.0255588
0.0278831
0.0295294
0.0305382
0.0309581
0.0308463
0.0302602
0.0292612
0.0279048
0.0262483
0.0243382
0.0222228
0.0199368
0.017518
0.0149888
0.0123775
0.009696
0.00696665
0.00419477
0.00140332
-0.102391
-0.101012
-0.100384
-0.0999504
-0.0997237
-0.0996342
-0.0996223
-0.0996469
-0.0996858
-0.0997317
-0.0997811
-0.0998307
-0.0998783
-0.0999221
-0.0999599
-0.0999899
-0.10001
-0.100019
-0.100013
-0.0999906
-0.0999526
-0.0998976
-0.0998249
-0.0997344
-0.0996248
-0.0994949
-0.0993424
-0.0991659
-0.0989689
-0.0987519
-0.098514
-0.0982541
-0.0979709
-0.0976622
-0.0973251
-0.0969563
-0.0965531
-0.0961118
-0.0956263
-0.0950898
-0.0944931
-0.0938262
-0.0930757
-0.0922256
-0.0912543
-0.0901345
-0.0888295
-0.0872956
-0.0854812
-0.0833327
-0.0807939
-0.0778144
-0.0743508
-0.0703753
-0.0658753
-0.0608627
-0.0553701
-0.049458
-0.0432058
-0.0367162
-0.0301022
-0.0234894
-0.0169998
-0.0107557
-0.00486103
0.000592505
0.00553481
0.00990713
0.0136763
0.0168226
0.0193506
0.0212745
0.0226281
0.023448
0.0237851
0.0236865
0.0232089
0.0224004
0.0213153
0.0199956
0.0184884
0.0168261
0.015046
0.0131704
0.0112277
0.00923107
0.00720161
0.00514586
0.00307955
0.00100598
-0.0965526
-0.0976375
-0.0984743
-0.099086
-0.0994027
-0.0995216
-0.0995562
-0.0995702
-0.099586
-0.0996163
-0.0996552
-0.0996958
-0.0997361
-0.0997745
-0.0998088
-0.099837
-0.0998577
-0.0998709
-0.0998732
-0.0998579
-0.0998226
-0.0997671
-0.0996907
-0.0995928
-0.0994734
-0.0993308
-0.0991626
-0.0989672
-0.0987448
-0.0984953
-0.0982176
-0.09791
-0.0975705
-0.0971962
-0.0967836
-0.0963283
-0.0958253
-0.0952693
-0.0946536
-0.0939701
-0.0932087
-0.0923575
-0.091402
-0.0903253
-0.0891067
-0.0877206
-0.0861354
-0.0843147
-0.0822176
-0.0798025
-0.0770285
-0.0738604
-0.0702695
-0.0662433
-0.0617858
-0.0569222
-0.0516951
-0.0461684
-0.0404197
-0.0345437
-0.0286393
-0.0228136
-0.0171653
-0.0117916
-0.00677134
-0.00217587
0.00194933
0.00556683
0.00866399
0.0112329
0.013289
0.0148478
0.0159462
0.0166146
0.0169021
0.0168451
0.0164972
0.0158938
0.0150871
0.0141056
0.0129958
0.0117757
0.0104851
0.00913126
0.00774804
0.00633328
0.00491726
0.00349023
0.00207995
0.00066827
-0.119216
-0.104306
-0.10238
-0.100904
-0.0999889
-0.0995603
-0.0993855
-0.0993238
-0.0993061
-0.0993104
-0.0993499
-0.0994117
-0.0994765
-0.0995373
-0.0995924
-0.09964
-0.0996772
-0.0997005
-0.0997052
-0.0996861
-0.0996399
-0.099565
-0.0994607
-0.0993269
-0.0991643
-0.0989709
-0.0987438
-0.0984798
-0.0981772
-0.0978345
-0.0974501
-0.0970224
-0.0965492
-0.0960275
-0.0954533
-0.094822
-0.0941283
-0.0933665
-0.0925296
-0.0916099
-0.0905976
-0.0894816
-0.0882482
-0.0868808
-0.0853592
-0.0836612
-0.0817623
-0.0796361
-0.0772545
-0.0745904
-0.0716194
-0.0683232
-0.064692
-0.0607287
-0.0564492
-0.0518854
-0.0470813
-0.0420958
-0.0369962
-0.0318617
-0.0267726
-0.0218135
-0.0170595
-0.0125831
-0.00843991
-0.00468156
-0.00133507
0.00157894
0.00406126
0.00611105
0.00774851
0.00898837
0.00986728
0.01041
0.0106627
0.0106527
0.01043
0.0100193
0.0094706
0.0088006
0.00805578
0.00724102
0.00639855
0.0055205
0.00464684
0.00375766
0.00289414
0.00202576
0.00119741
0.000364026
-0.0867964
-0.0932436
-0.0957508
-0.0965964
-0.0970469
-0.0974517
-0.0978263
-0.0981415
-0.0984144
-0.0986521
-0.098857
-0.0990317
-0.0991794
-0.0993041
-0.0994081
-0.0994909
-0.0995492
-0.0995784
-0.0995737
-0.0995304
-0.0994451
-0.0993156
-0.0991413
-0.0989217
-0.0986569
-0.0983457
-0.0979864
-0.0975769
-0.0971157
-0.0966013
-0.0960324
-0.0954067
-0.0947207
-0.0939713
-0.0931551
-0.0922684
-0.0913065
-0.0902643
-0.0891357
-0.0879139
-0.086591
-0.0851575
-0.0836028
-0.0819145
-0.0800786
-0.0780806
-0.0759049
-0.0735357
-0.0709569
-0.0681546
-0.0651179
-0.0618417
-0.0583273
-0.0545854
-0.050636
-0.0465093
-0.0422448
-0.0378907
-0.0335014
-0.0291391
-0.0248669
-0.0207493
-0.0168437
-0.0132035
-0.00986774
-0.00686803
-0.00421785
-0.00192642
1.34721e-05
0.00160642
0.00287376
0.00383098
0.00451308
0.00494274
0.00516259
0.00519487
0.00508472
0.00484912
0.00453341
0.00414538
0.00372917
0.00327939
0.00283898
0.00238631
0.00196618
0.00153944
0.00115892
0.000767223
0.000431119
6.95962e-05
-0.0809028
-0.0886755
-0.0926549
-0.0940787
-0.0945144
-0.0948546
-0.0953569
-0.0959778
-0.0966041
-0.0971617
-0.0976267
-0.0980072
-0.098321
-0.098583
-0.0988003
-0.0989735
-0.0990984
-0.099169
-0.0991795
-0.0991248
-0.0990017
-0.0988083
-0.0985441
-0.0982098
-0.0978062
-0.0973343
-0.0967944
-0.096187
-0.0955122
-0.0947698
-0.0939595
-0.0930805
-0.0921311
-0.0911097
-0.0900141
-0.0888418
-0.0875896
-0.0862537
-0.0848298
-0.0833131
-0.0816982
-0.0799789
-0.0781485
-0.0761999
-0.0741254
-0.0719171
-0.0695668
-0.0670664
-0.0644085
-0.0615872
-0.0586
-0.0554486
-0.0521398
-0.0486866
-0.0451093
-0.0414358
-0.0377014
-0.0339483
-0.0302222
-0.0265708
-0.0230412
-0.0196801
-0.0165289
-0.0136238
-0.0109906
-0.00864842
-0.00660417
-0.0048587
-0.0033988
-0.00221095
-0.00127217
-0.000563849
-5.44985e-05
0.000279436
0.00047596
0.000557057
0.000560277
0.000498308
0.000405778
0.000284507
0.000169598
5.03149e-05
-3.59798e-05
-0.000118281
-0.000153021
-0.000192917
-0.000178069
-0.000191011
-0.000141778
-0.000155811
-0.0707271
-0.0779085
-0.0832518
-0.0867468
-0.0888988
-0.0903638
-0.0915898
-0.0927562
-0.093876
-0.0949036
-0.0958013
-0.0965589
-0.0971867
-0.0977018
-0.098118
-0.0984419
-0.0986743
-0.0988125
-0.0988526
-0.0987919
-0.0986287
-0.0983633
-0.0979972
-0.0975332
-0.0969745
-0.0963247
-0.0955871
-0.0947649
-0.0938608
-0.0928769
-0.091815
-0.0906761
-0.0894607
-0.0881686
-0.0867988
-0.08535
-0.0838203
-0.0822074
-0.0805089
-0.0787219
-0.0768435
-0.0748706
-0.0728005
-0.0706303
-0.0683575
-0.0659799
-0.0634958
-0.0609039
-0.0582043
-0.0553984
-0.0524892
-0.0494824
-0.0463866
-0.0432149
-0.0399857
-0.0367242
-0.0334625
-0.0302384
-0.0270924
-0.0240646
-0.021191
-0.0185014
-0.0160183
-0.0137587
-0.0117354
-0.00995953
-0.00843642
-0.00716164
-0.00611497
-0.00526951
-0.00459598
-0.00407187
-0.00367262
-0.00337748
-0.00315648
-0.00298724
-0.00284216
-0.00271167
-0.00257797
-0.00244395
-0.0022918
-0.0021321
-0.00194134
-0.00174343
-0.00150524
-0.00127312
-0.000993018
-0.000751324
-0.000450125
-0.00024931
-0.0655392
-0.0721652
-0.0776439
-0.0818713
-0.084971
-0.0872528
-0.0890573
-0.090623
-0.092058
-0.0933799
-0.0945686
-0.0956034
-0.096478
-0.0971982
-0.0977741
-0.0982141
-0.0985223
-0.0986988
-0.0987422
-0.0986511
-0.0984257
-0.0980681
-0.097582
-0.0969726
-0.0962457
-0.0954075
-0.094464
-0.093421
-0.0922836
-0.0910565
-0.0897436
-0.088348
-0.0868716
-0.0853155
-0.08368
-0.0819647
-0.0801691
-0.0782921
-0.0763331
-0.0742911
-0.072166
-0.0699577
-0.067667
-0.065295
-0.0628439
-0.060317
-0.0577183
-0.0550532
-0.0523279
-0.0495495
-0.046726
-0.0438655
-0.0409776
-0.0380741
-0.03517
-0.0322859
-0.0294496
-0.0266959
-0.0240644
-0.0215936
-0.0193125
-0.0172346
-0.0153575
-0.0136707
-0.0121679
-0.0108553
-0.00974239
-0.00882672
-0.00808388
-0.00747323
-0.00695355
-0.00650044
-0.00610308
-0.0057559
-0.00544524
-0.00515449
-0.00486356
-0.00456231
-0.00424212
-0.00390747
-0.00355726
-0.00320218
-0.00283599
-0.00247092
-0.00209046
-0.00171808
-0.00132209
-0.000959474
-0.000557953
-0.000260669
-0.0610617
-0.0673436
-0.0728178
-0.0773893
-0.0810659
-0.0839807
-0.0863436
-0.0883538
-0.0901438
-0.0917719
-0.0932458
-0.0945521
-0.0956774
-0.0966166
-0.0973722
-0.0979492
-0.0983519
-0.0985823
-0.0986408
-0.0985284
-0.0982474
-0.0978026
-0.0972007
-0.0964498
-0.0955588
-0.0945366
-0.0933916
-0.092132
-0.0907659
-0.0893006
-0.0877426
-0.0860969
-0.0843674
-0.0825563
-0.0806652
-0.0786948
-0.0766455
-0.0745179
-0.0723127
-0.0700314
-0.0676762
-0.0652504
-0.0627582
-0.0602048
-0.0575968
-0.0549421
-0.0522505
-0.0495334
-0.0468034
-0.0440737
-0.0413568
-0.0386632
-0.0360026
-0.033384
-0.0308177
-0.0283158
-0.0258956
-0.0235836
-0.021418
-0.0194399
-0.0176776
-0.016132
-0.0147705
-0.0135484
-0.0124382
-0.0114432
-0.0105811
-0.00985937
-0.00926311
-0.00874949
-0.00826714
-0.00778649
-0.0073059
-0.00683749
-0.0063916
-0.00597048
-0.00556727
-0.00517387
-0.00478007
-0.00438119
-0.00397334
-0.00356017
-0.00314032
-0.00271968
-0.00229252
-0.0018682
-0.00143555
-0.00102187
-0.000595644
-0.000251571
-0.0575151
-0.0635993
-0.0690607
-0.073822
-0.0778603
-0.0812294
-0.0840508
-0.0864696
-0.0886062
-0.0905321
-0.0922732
-0.0938271
-0.0951812
-0.0963241
-0.0972508
-0.0979605
-0.0984547
-0.0987349
-0.0988023
-0.0986596
-0.0983117
-0.0977664
-0.097035
-0.0961302
-0.0950648
-0.0938505
-0.0924981
-0.0910184
-0.0894219
-0.0877184
-0.0859167
-0.0840241
-0.0820464
-0.0799876
-0.0778505
-0.0756372
-0.0733493
-0.0709887
-0.0685581
-0.0660609
-0.0635024
-0.0608891
-0.0582292
-0.0555325
-0.0528098
-0.0500729
-0.0473354
-0.0446138
-0.0419275
-0.0392959
-0.0367345
-0.0342539
-0.0318602
-0.0295577
-0.0273501
-0.0252401
-0.0232285
-0.0213229
-0.0195537
-0.0179605
-0.0165752
-0.0153995
-0.0143832
-0.0134621
-0.0125951
-0.0117777
-0.0110204
-0.0103255
-0.0097089
-0.00916405
-0.00865865
-0.00816866
-0.0076949
-0.00722801
-0.0067627
-0.00629859
-0.00583565
-0.00537438
-0.00491636
-0.00446495
-0.00402164
-0.00358687
-0.00315695
-0.00273133
-0.00230535
-0.00187988
-0.00145077
-0.00102889
-0.000608162
-0.000252878
-0.0546711
-0.0606578
-0.0661179
-0.0709859
-0.0752412
-0.0789166
-0.0820887
-0.0848563
-0.0873125
-0.0895232
-0.091521
-0.0933109
-0.0948828
-0.0962222
-0.0973173
-0.0981609
-0.0987495
-0.0990821
-0.0991598
-0.0989859
-0.0985674
-0.0979157
-0.0970469
-0.0959809
-0.094736
-0.0933272
-0.0917685
-0.090073
-0.0882539
-0.0863234
-0.0842928
-0.0821717
-0.079968
-0.0776874
-0.0753346
-0.0729129
-0.0704257
-0.0678764
-0.0652694
-0.0626105
-0.0599074
-0.0571703
-0.0544116
-0.051646
-0.0488888
-0.0461546
-0.0434566
-0.0408133
-0.0382482
-0.0357823
-0.0334291
-0.0311939
-0.0290749
-0.0270677
-0.0251697
-0.0233818
-0.0217033
-0.0201318
-0.018676
-0.0173581
-0.01619
-0.0151586
-0.0142422
-0.0134151
-0.0126537
-0.0119511
-0.0113121
-0.0107219
-0.0101384
-0.00953618
-0.00891794
-0.00831204
-0.00773421
-0.00719452
-0.00669637
-0.00623155
-0.00578565
-0.00534768
-0.00491198
-0.00447654
-0.00404181
-0.00360916
-0.00317927
-0.0027517
-0.00232434
-0.00189676
-0.001468
-0.00104371
-0.000632523
-0.00024958
-0.0523366
-0.0583057
-0.0637765
-0.068705
-0.0730914
-0.0769733
-0.0804111
-0.0834722
-0.0862203
-0.0887052
-0.090956
-0.0929796
-0.0947671
-0.0963019
-0.0975668
-0.0985476
-0.099235
-0.0996244
-0.0997161
-0.0995143
-0.0990282
-0.0982726
-0.097269
-0.0960444
-0.0946232
-0.0930271
-0.0912755
-0.0893865
-0.0873765
-0.0852603
-0.0830507
-0.0807587
-0.0783927
-0.0759597
-0.0734649
-0.0709129
-0.0683078
-0.0656543
-0.062958
-0.0602261
-0.0574676
-0.0546945
-0.0519217
-0.0491667
-0.046449
-0.0437859
-0.0411917
-0.038689
-0.0362978
-0.0340297
-0.0318867
-0.0298628
-0.027948
-0.0261288
-0.0243978
-0.0227627
-0.0212456
-0.0198753
-0.0186655
-0.0176088
-0.0166729
-0.0157679
-0.0148385
-0.013882
-0.0129348
-0.0120621
-0.0112878
-0.010609
-0.0100041
-0.00943451
-0.00887572
-0.00832416
-0.00778446
-0.00726708
-0.00677469
-0.00630125
-0.00584006
-0.00538646
-0.00493829
-0.00449511
-0.00405685
-0.00362247
-0.00319134
-0.00276287
-0.00233599
-0.00190989
-0.00148424
-0.00106407
-0.000658487
-0.000249851
-0.0508508
-0.0567913
-0.062234
-0.0671709
-0.0716265
-0.0756419
-0.0792664
-0.0825483
-0.0855298
-0.0882451
-0.0907141
-0.0929411
-0.0949166
-0.096622
-0.0980358
-0.0991378
-0.0999126
-0.100351
-0.100451
-0.100219
-0.0996686
-0.0988212
-0.0977012
-0.0963337
-0.0947498
-0.0929813
-0.0910582
-0.0890064
-0.0868476
-0.0845992
-0.0822753
-0.0798865
-0.0774406
-0.0749436
-0.0723997
-0.0698127
-0.067186
-0.0645235
-0.0618301
-0.0591123
-0.0563785
-0.0536399
-0.0509107
-0.0482086
-0.0455555
-0.0429765
-0.0405013
-0.0381536
-0.035948
-0.033888
-0.031963
-0.0301487
-0.0284132
-0.0267261
-0.0250579
-0.023406
-0.0217952
-0.0202689
-0.0188748
-0.0176433
-0.0165523
-0.0155734
-0.014656
-0.0137815
-0.0129439
-0.0121533
-0.0114256
-0.0107613
-0.010139
-0.00953891
-0.00895224
-0.00838092
-0.0078307
-0.00730552
-0.00680435
-0.00632367
-0.00585808
-0.00540262
-0.00495392
-0.00451025
-0.00407092
-0.0036355
-0.00320351
-0.00277451
-0.00234806
-0.00192371
-0.00150139
-0.00108454
-0.00067722
-0.000252987
-0.0499623
-0.0559238
-0.0613709
-0.0663303
-0.0708417
-0.0749483
-0.0786939
-0.0821219
-0.0852687
-0.0881564
-0.0907928
-0.0931736
-0.0952849
-0.097107
-0.0986178
-0.0997968
-0.100628
-0.101102
-0.101219
-0.100986
-0.100419
-0.0995437
-0.0983882
-0.096985
-0.095367
-0.0935662
-0.0916127
-0.089533
-0.0873499
-0.0850818
-0.0827432
-0.0803452
-0.0778957
-0.0754007
-0.0728643
-0.07029
-0.0676807
-0.0650398
-0.0623714
-0.0596807
-0.0569751
-0.0542641
-0.0515597
-0.0488771
-0.0462347
-0.043653
-0.0411534
-0.0387553
-0.0364734
-0.0343148
-0.0322777
-0.0303522
-0.0285275
-0.0267613
-0.0250498
-0.0233964
-0.0218218
-0.020358
-0.0190288
-0.0178437
-0.016781
-0.0157943
-0.0148466
-0.0139274
-0.0130471
-0.0122263
-0.0114768
-0.010793
-0.0101578
-0.00955198
-0.00896608
-0.00839916
-0.00785384
-0.00733211
-0.00683257
-0.00635114
-0.00588319
-0.00542501
-0.00497414
-0.00452911
-0.00408897
-0.00365294
-0.00322044
-0.00279112
-0.00236492
-0.001942
-0.00152253
-0.00110702
-0.000694075
-0.000260339
)
;

boundaryField
{
    fixedWalls
    {
        type            zeroGradient;
    }
    inflowWall
    {
        type            zeroGradient;
    }
    outflowWall
    {
        type            fixedValue;
        value           uniform 0;
    }
    frontAndBack
    {
        type            empty;
    }
}


// ************************************************************************* //
