/*--------------------------------*- C++ -*----------------------------------*\
| =========                 |                                                 |
| \\      /  F ield         | OpenFOAM: The Open Source CFD Toolbox           |
|  \\    /   O peration     | Version:  2306                                  |
|   \\  /    A nd           | Website:  www.openfoam.com                      |
|    \\/     M anipulation  |                                                 |
\*---------------------------------------------------------------------------*/
FoamFile
{
    version     2.0;
    format      ascii;
    arch        "LSB;label=32;scalar=64";
    class       surfaceScalarField;
    location    "5";
    object      phi;
}
// * * * * * * * * * * * * * * * * * * * * * * * * * * * * * * * * * * * * * //

dimensions      [0 3 -1 0 0 0 0];

oriented        oriented;

internalField   nonuniform List<scalar> 
3680
(
4.93469e-05
6.53118e-07
4.79741e-05
1.37281e-06
4.66975e-05
1.27658e-06
4.52603e-05
1.4372e-06
4.41219e-05
1.13842e-06
4.27178e-05
1.40406e-06
4.17331e-05
9.84752e-07
4.0431e-05
1.30206e-06
3.97975e-05
6.33554e-07
9.88416e-07
3.8809e-05
5.03392e-05
3.13891e-07
5.08677e-05
8.44325e-07
5.1132e-05
1.01233e-06
5.14648e-05
1.10435e-06
5.15922e-05
1.01106e-06
5.19747e-05
1.02147e-06
5.20596e-05
8.99936e-07
5.25101e-05
8.51503e-07
5.25039e-05
6.39779e-07
4.34202e-07
5.30581e-05
5.01633e-05
1.50614e-07
5.05553e-05
4.52304e-07
5.09758e-05
5.91879e-07
5.14192e-05
6.60877e-07
5.18162e-05
6.14111e-07
5.2267e-05
5.70644e-07
5.26939e-05
4.73011e-07
5.31628e-05
3.82638e-07
5.35795e-05
2.23115e-07
1.53255e-08
5.39983e-05
5.00932e-05
5.73969e-08
5.03763e-05
1.69202e-07
5.07339e-05
2.34274e-07
5.11459e-05
2.4893e-07
5.15494e-05
2.10631e-07
5.19717e-05
1.48307e-07
5.23826e-05
6.20806e-08
5.28109e-05
-4.56654e-08
5.32209e-05
-1.86912e-07
-3.55974e-07
5.35922e-05
5.00738e-05
-1.63919e-08
5.02912e-05
-4.82332e-08
5.0611e-05
-8.55149e-08
5.09886e-05
-1.28641e-07
5.138e-05
-1.80831e-07
5.1774e-05
-2.45633e-07
5.21647e-05
-3.28619e-07
5.2551e-05
-4.31935e-07
5.29206e-05
-5.56528e-07
-7.01955e-07
5.32666e-05
5.00732e-05
-8.95576e-08
5.02829e-05
-2.5798e-07
5.05977e-05
-4.00335e-07
5.09652e-05
-4.96108e-07
5.13443e-05
-5.59906e-07
5.17214e-05
-6.228e-07
5.20912e-05
-6.98406e-07
5.24523e-05
-7.92977e-07
5.28019e-05
-9.06127e-07
-1.03358e-06
5.31335e-05
5.00942e-05
-1.83759e-07
5.03556e-05
-5.19355e-07
5.06982e-05
-7.42993e-07
5.10682e-05
-8.66064e-07
5.14406e-05
-9.32303e-07
5.18044e-05
-9.86613e-07
5.21611e-05
-1.05515e-06
5.25125e-05
-1.14434e-06
5.28534e-05
-1.247e-06
-1.35499e-06
5.31748e-05
5.01665e-05
-3.50238e-07
5.0518e-05
-8.70915e-07
5.09208e-05
-1.14578e-06
5.12996e-05
-1.24488e-06
5.16485e-05
-1.28117e-06
5.1986e-05
-1.32406e-06
5.23199e-05
-1.38909e-06
5.26414e-05
-1.46583e-06
5.29366e-05
-1.54224e-06
-1.61286e-06
5.31945e-05
5.03676e-05
-7.17859e-07
5.08004e-05
-1.30373e-06
5.10992e-05
-1.44454e-06
5.12768e-05
-1.42245e-06
5.14054e-05
-1.40985e-06
5.15043e-05
-1.42291e-06
5.15559e-05
-1.44071e-06
5.15436e-05
-1.45357e-06
5.14592e-05
-1.45783e-06
-1.45684e-06
5.13032e-05
4.92821e-05
4.79784e-05
4.65339e-05
4.51114e-05
4.37016e-05
4.22787e-05
4.0838e-05
3.93844e-05
3.79266e-05
3.64697e-05
1.4383e-08
-1.4383e-08
1.08719e-08
3.51121e-09
-7.7458e-09
1.86177e-08
-3.6114e-08
2.83682e-08
-7.14571e-08
3.5343e-08
-1.12467e-07
4.10104e-08
-1.58736e-07
4.62689e-08
-2.10004e-07
5.12675e-08
-2.65977e-07
5.59732e-08
-3.26324e-07
6.03465e-08
-3.90683e-07
6.43592e-08
-4.58682e-07
6.79988e-08
-5.29948e-07
7.1266e-08
-6.04117e-07
7.41696e-08
-6.80842e-07
7.67245e-08
-7.59793e-07
7.89508e-08
-8.40665e-07
8.08719e-08
-9.23177e-07
8.25128e-08
-1.00708e-06
8.39006e-08
-1.09215e-06
8.5073e-08
-1.17823e-06
8.60776e-08
-1.2652e-06
8.6969e-08
-1.353e-06
8.78068e-08
-1.44166e-06
8.86544e-08
-1.53124e-06
8.95795e-08
-1.6219e-06
9.06574e-08
-1.71387e-06
9.19701e-08
-1.80747e-06
9.35994e-08
-1.90309e-06
9.56214e-08
-2.00119e-06
9.81046e-08
-2.1023e-06
1.01107e-07
-2.20697e-06
1.04675e-07
-2.31584e-06
1.08866e-07
-2.42962e-06
1.13778e-07
-2.54921e-06
1.19591e-07
-2.67579e-06
1.26583e-07
-2.81094e-06
1.35152e-07
-2.9568e-06
1.45853e-07
-3.1162e-06
1.59401e-07
-3.29285e-06
1.76654e-07
-3.49139e-06
1.98542e-07
-3.71728e-06
2.25883e-07
-3.97636e-06
2.59087e-07
-4.27417e-06
2.97808e-07
-4.61479e-06
3.40624e-07
-4.99972e-06
3.84921e-07
-5.42677e-06
4.27052e-07
-5.8895e-06
4.62733e-07
-6.37683e-06
4.8733e-07
-6.8732e-06
4.96367e-07
-7.35982e-06
4.86623e-07
-7.81674e-06
4.56921e-07
-8.22399e-06
4.07243e-07
-8.56236e-06
3.38379e-07
-8.81574e-06
2.53375e-07
-8.97161e-06
1.55871e-07
-9.0169e-06
4.52882e-08
-8.94796e-06
-6.89432e-08
-8.7639e-06
-1.84056e-07
-8.46462e-06
-2.99281e-07
-8.05215e-06
-4.1247e-07
-7.53269e-06
-5.19454e-07
-6.91662e-06
-6.16073e-07
-6.21271e-06
-7.0391e-07
-5.43256e-06
-7.80148e-07
-4.58839e-06
-8.44172e-07
-3.69353e-06
-8.94863e-07
-2.75879e-06
-9.34741e-07
-1.80166e-06
-9.57127e-07
-8.31425e-07
-9.70234e-07
1.38307e-07
-9.69733e-07
1.10015e-06
-9.61844e-07
2.04126e-06
-9.41113e-07
2.95783e-06
-9.1657e-07
3.83795e-06
-8.80116e-07
4.68214e-06
-8.4419e-07
5.47973e-06
-7.97594e-07
6.23585e-06
-7.56116e-07
6.94058e-06
-7.04728e-07
7.60387e-06
-6.63295e-07
8.21565e-06
-6.11775e-07
8.79083e-06
-5.75177e-07
9.31839e-06
-5.27563e-07
9.81799e-06
-4.996e-07
1.02777e-05
-4.59691e-07
1.07215e-05
-4.43812e-07
1.11362e-05
-4.14668e-07
1.15518e-05
-4.15663e-07
1.19521e-05
-4.0024e-07
-4.34996e-07
-1.09019e-08
-3.48119e-09
-6.46239e-08
5.72332e-08
-1.48324e-07
1.02318e-07
-2.53963e-07
1.34007e-07
-3.76667e-07
1.58047e-07
-5.14059e-07
1.78403e-07
-6.64478e-07
1.96688e-07
-8.26445e-07
2.13235e-07
-9.9856e-07
2.28088e-07
-1.17948e-06
2.41266e-07
-1.36792e-06
2.52798e-07
-1.56266e-06
2.62738e-07
-1.76256e-06
2.7117e-07
-1.96659e-06
2.78204e-07
-2.17384e-06
2.83966e-07
-2.38348e-06
2.88595e-07
-2.59485e-06
2.92239e-07
-2.80738e-06
2.9505e-07
-3.02067e-06
2.97182e-07
-3.23441e-06
2.98814e-07
-3.44847e-06
3.00145e-07
-3.66289e-06
3.01385e-07
-3.87783e-06
3.02751e-07
-4.09364e-06
3.04463e-07
-4.31081e-06
3.06742e-07
-4.52997e-06
3.09822e-07
-4.75194e-06
3.13943e-07
-4.97768e-06
3.19335e-07
-5.20826e-06
3.262e-07
-5.44487e-06
3.34716e-07
-5.68879e-06
3.45023e-07
-5.94133e-06
3.57224e-07
-6.20387e-06
3.714e-07
-6.47776e-06
3.87668e-07
-6.76439e-06
4.06218e-07
-7.06511e-06
4.27309e-07
-7.38118e-06
4.51218e-07
-7.7136e-06
4.78271e-07
-8.06298e-06
5.08779e-07
-8.42929e-06
5.42965e-07
-8.81159e-06
5.80847e-07
-9.20776e-06
6.22054e-07
-9.61412e-06
6.6545e-07
-1.00251e-05
7.08766e-07
-1.04329e-05
7.48423e-07
-1.08276e-05
7.79636e-07
-1.11973e-05
7.96788e-07
-1.1529e-05
7.94404e-07
-1.1809e-05
7.67316e-07
-1.20232e-05
7.10559e-07
-1.21576e-05
6.21035e-07
-1.21995e-05
4.9882e-07
-1.21389e-05
3.46609e-07
-1.19654e-05
1.64879e-07
-1.16682e-05
-4.37597e-08
-1.12565e-05
-2.55829e-07
-1.07263e-05
-4.84938e-07
-1.00753e-05
-7.19928e-07
-9.30373e-06
-9.5563e-07
-8.41913e-06
-1.18389e-06
-7.42789e-06
-1.40371e-06
-6.33787e-06
-1.60947e-06
-5.16225e-06
-1.79169e-06
-3.9114e-06
-1.95476e-06
-2.59733e-06
-2.09422e-06
-1.23443e-06
-2.20708e-06
1.66618e-07
-2.29591e-06
1.58694e-06
-2.35507e-06
3.02095e-06
-2.39113e-06
4.45532e-06
-2.4046e-06
5.87867e-06
-2.39308e-06
7.28189e-06
-2.36507e-06
8.65498e-06
-2.3142e-06
9.99209e-06
-2.25368e-06
1.12853e-05
-2.17337e-06
1.25321e-05
-2.09092e-06
1.37265e-05
-1.99201e-06
1.4869e-05
-1.89863e-06
1.59559e-05
-1.79162e-06
1.69902e-05
-1.69764e-06
1.79703e-05
-1.59184e-06
1.89015e-05
-1.50636e-06
1.97836e-05
-1.40965e-06
2.06246e-05
-1.34066e-06
2.14247e-05
-1.25972e-06
2.21955e-05
-1.21465e-06
2.29362e-05
-1.15533e-06
2.36631e-05
-1.14257e-06
2.43731e-05
-1.11026e-06
-1.13171e-06
-5.01838e-08
4.67027e-08
-1.86924e-07
1.93974e-07
-3.69718e-07
2.85111e-07
-5.79692e-07
3.43981e-07
-8.07938e-07
3.86293e-07
-1.05197e-06
4.22437e-07
-1.31017e-06
4.5488e-07
-1.57995e-06
4.83017e-07
-1.85869e-06
5.0683e-07
-2.14394e-06
5.2652e-07
-2.4335e-06
5.4235e-07
-2.7254e-06
5.54639e-07
-3.01798e-06
5.63756e-07
-3.30987e-06
5.7009e-07
-3.59993e-06
5.7403e-07
-3.8873e-06
5.7596e-07
-4.17131e-06
5.76245e-07
-4.4515e-06
5.75247e-07
-4.72758e-06
5.73259e-07
-4.9994e-06
5.70637e-07
-5.26701e-06
5.67749e-07
-5.53057e-06
5.64945e-07
-5.79037e-06
5.62555e-07
-6.04679e-06
5.60887e-07
-6.30027e-06
5.60218e-07
-6.55126e-06
5.60815e-07
-6.80026e-06
5.62938e-07
-7.04773e-06
5.66804e-07
-7.29407e-06
5.7254e-07
-7.53956e-06
5.80213e-07
-7.78434e-06
5.89801e-07
-8.02831e-06
6.01195e-07
-8.27112e-06
6.14204e-07
-8.51206e-06
6.28608e-07
-8.7501e-06
6.44259e-07
-8.9839e-06
6.61113e-07
-9.21161e-06
6.78925e-07
-9.43078e-06
6.97443e-07
-9.63832e-06
7.16323e-07
-9.83037e-06
7.35015e-07
-1.00022e-05
7.52654e-07
-1.01483e-05
7.6814e-07
-1.02621e-05
7.79329e-07
-1.03366e-05
7.83175e-07
-1.03637e-05
7.7553e-07
-1.03353e-05
7.51296e-07
-1.0243e-05
7.0444e-07
-1.00784e-05
6.29856e-07
-9.83527e-06
5.24159e-07
-9.50862e-06
3.83905e-07
-9.09335e-06
2.05763e-07
-8.58171e-06
-1.28175e-08
-7.98114e-06
-2.53966e-07
-7.28862e-06
-5.27632e-07
-6.50513e-06
-8.27253e-07
-5.6217e-06
-1.13926e-06
-4.64569e-06
-1.46095e-06
-3.58385e-06
-1.78177e-06
-2.43965e-06
-2.09983e-06
-1.22025e-06
-2.40328e-06
7.04055e-08
-2.69437e-06
1.41284e-06
-2.95191e-06
2.81043e-06
-3.18928e-06
4.24716e-06
-3.39149e-06
5.71648e-06
-3.56354e-06
7.2054e-06
-3.696e-06
8.7056e-06
-3.7961e-06
1.02074e-05
-3.85688e-06
1.17005e-05
-3.88421e-06
1.31743e-05
-3.87838e-06
1.46224e-05
-3.84125e-06
1.60354e-05
-3.77803e-06
1.74091e-05
-3.68792e-06
1.87363e-05
-3.58091e-06
2.00154e-05
-3.45242e-06
2.12415e-05
-3.31704e-06
2.24151e-05
-3.16559e-06
2.35338e-05
-3.0173e-06
2.45997e-05
-2.85754e-06
2.56126e-05
-2.71058e-06
2.65761e-05
-2.55532e-06
2.74918e-05
-2.42203e-06
2.83641e-05
-2.28201e-06
2.91967e-05
-2.17321e-06
2.99942e-05
-2.05729e-06
3.07621e-05
-1.98254e-06
3.15053e-05
-1.89847e-06
3.22293e-05
-1.86664e-06
3.29391e-05
-1.81998e-06
-1.84345e-06
-1.38487e-07
1.8519e-07
-3.92934e-07
4.48421e-07
-6.86902e-07
5.7908e-07
-9.98215e-07
6.55294e-07
-1.32464e-06
7.12716e-07
-1.66333e-06
7.6113e-07
-2.00925e-06
8.00796e-07
-2.35764e-06
8.31407e-07
-2.70447e-06
8.5366e-07
-3.04669e-06
8.68746e-07
-3.38184e-06
8.77498e-07
-3.70801e-06
8.80809e-07
-4.02385e-06
8.79599e-07
-4.32844e-06
8.74671e-07
-4.62115e-06
8.66743e-07
-4.90165e-06
8.56459e-07
-5.16979e-06
8.44385e-07
-5.42555e-06
8.31003e-07
-5.66903e-06
8.16744e-07
-5.90043e-06
8.02033e-07
-6.11995e-06
7.87271e-07
-6.32782e-06
7.7282e-07
-6.52426e-06
7.58994e-07
-6.70943e-06
7.46055e-07
-6.8834e-06
7.34191e-07
-7.04614e-06
7.23549e-07
-7.19747e-06
7.14273e-07
-7.33714e-06
7.06472e-07
-7.46468e-06
7.00074e-07
-7.5794e-06
6.94934e-07
-7.68039e-06
6.90799e-07
-7.7665e-06
6.873e-07
-7.83625e-06
6.83952e-07
-7.88782e-06
6.8018e-07
-7.91905e-06
6.75487e-07
-7.9275e-06
6.6957e-07
-7.91034e-06
6.6176e-07
-7.86424e-06
6.51346e-07
-7.78542e-06
6.37499e-07
-7.66959e-06
6.19187e-07
-7.51192e-06
5.94987e-07
-7.30685e-06
5.63067e-07
-7.04896e-06
5.21437e-07
-6.73321e-06
4.67424e-07
-6.35431e-06
3.96632e-07
-5.90789e-06
3.04876e-07
-5.38984e-06
1.86392e-07
-4.79538e-06
3.5392e-08
-4.12691e-06
-1.44303e-07
-3.38342e-06
-3.59588e-07
-2.56472e-06
-6.1294e-07
-1.67632e-06
-9.01212e-07
-7.10033e-07
-1.22026e-06
3.2775e-07
-1.56542e-06
1.43233e-06
-1.93184e-06
2.60039e-06
-2.30732e-06
3.82999e-06
-2.69055e-06
5.11595e-06
-3.06773e-06
6.45478e-06
-3.43865e-06
7.83889e-06
-3.78739e-06
9.26201e-06
-4.11749e-06
1.07197e-05
-4.40961e-06
1.22023e-05
-4.67184e-06
1.37e-05
-4.88926e-06
1.52062e-05
-5.06967e-06
1.671e-05
-5.1998e-06
1.82039e-05
-5.29002e-06
1.9678e-05
-5.33095e-06
2.11263e-05
-5.33258e-06
2.25386e-05
-5.29063e-06
2.39117e-05
-5.21436e-06
2.52368e-05
-5.10316e-06
2.65134e-05
-4.96451e-06
2.77345e-05
-4.80198e-06
2.8902e-05
-4.61994e-06
3.00109e-05
-4.42595e-06
3.10653e-05
-4.22001e-06
3.2062e-05
-4.01393e-06
3.30066e-05
-3.80215e-06
3.38973e-05
-3.60131e-06
3.47412e-05
-3.39924e-06
3.55376e-05
-3.21842e-06
3.62945e-05
-3.03888e-06
3.70117e-05
-2.89042e-06
3.76982e-05
-2.74382e-06
3.83538e-05
-2.63814e-06
3.89885e-05
-2.53317e-06
3.96017e-05
-2.47975e-06
4.02069e-05
-2.42527e-06
-2.4377e-06
-1.95635e-07
3.80824e-07
-5.66614e-07
8.194e-07
-9.85058e-07
9.97524e-07
-1.41274e-06
1.08298e-06
-1.8334e-06
1.13337e-06
-2.23832e-06
1.16605e-06
-2.62377e-06
1.18625e-06
-2.98867e-06
1.1963e-06
-3.33126e-06
1.19625e-06
-3.65011e-06
1.18759e-06
-3.94458e-06
1.17197e-06
-4.21461e-06
1.15084e-06
-4.46052e-06
1.1255e-06
-4.68288e-06
1.09703e-06
-4.88246e-06
1.06632e-06
-5.06011e-06
1.03411e-06
-5.2167e-06
1.00098e-06
-5.35306e-06
9.67368e-07
-5.46994e-06
9.33617e-07
-5.56799e-06
9.00084e-07
-5.64778e-06
8.6707e-07
-5.70977e-06
8.34808e-07
-5.75424e-06
8.03465e-07
-5.78134e-06
7.73148e-07
-5.79099e-06
7.43847e-07
-5.78293e-06
7.15485e-07
-5.75664e-06
6.87986e-07
-5.71154e-06
6.61373e-07
-5.64679e-06
6.35325e-07
-5.56133e-06
6.09465e-07
-5.45385e-06
5.83326e-07
-5.32286e-06
5.56311e-07
-5.16661e-06
5.27699e-07
-4.98307e-06
4.96637e-07
-4.76973e-06
4.62147e-07
-4.52422e-06
4.24063e-07
-4.2438e-06
3.81345e-07
-3.92534e-06
3.32884e-07
-3.56534e-06
2.77494e-07
-3.15995e-06
2.13804e-07
-2.70497e-06
1.40005e-07
-2.19539e-06
5.34852e-08
-1.62784e-06
-4.61098e-08
-1.00034e-06
-1.60076e-07
-3.08811e-07
-2.94899e-07
4.49573e-07
-4.53508e-07
1.2759e-06
-6.3993e-07
2.16729e-06
-8.56006e-07
3.12728e-06
-1.10429e-06
4.1533e-06
-1.38561e-06
5.24213e-06
-1.70177e-06
6.38928e-06
-2.04836e-06
7.59266e-06
-2.42363e-06
8.84652e-06
-2.81928e-06
1.01482e-05
-3.23355e-06
1.14935e-05
-3.65256e-06
1.28786e-05
-4.07572e-06
1.42978e-05
-4.4869e-06
1.5746e-05
-4.88685e-06
1.7216e-05
-5.25744e-06
1.87007e-05
-5.6021e-06
2.01931e-05
-5.90209e-06
2.16851e-05
-6.16383e-06
2.31672e-05
-6.37131e-06
2.46318e-05
-6.53431e-06
2.60702e-05
-6.63822e-06
2.74761e-05
-6.69588e-06
2.8841e-05
-6.69587e-06
3.01615e-05
-6.65301e-06
3.14298e-05
-6.55898e-06
3.26452e-05
-6.42975e-06
3.38016e-05
-6.25955e-06
3.49011e-05
-6.06402e-06
3.59389e-05
-5.83982e-06
3.69199e-05
-5.6009e-06
3.78401e-05
-5.34617e-06
3.87067e-05
-5.08658e-06
3.95161e-05
-4.82339e-06
4.02775e-05
-4.56354e-06
4.09873e-05
-4.31109e-06
4.16562e-05
-4.06811e-06
4.228e-05
-3.84229e-06
4.28712e-05
-3.62998e-06
4.34244e-05
-3.44363e-06
4.39535e-05
-3.27291e-06
4.44518e-05
-3.13649e-06
4.4935e-05
-3.01633e-06
4.53945e-05
-2.93924e-06
4.58474e-05
-2.87825e-06
-2.87587e-06
-4.22141e-07
8.02965e-07
-9.62528e-07
1.35979e-06
-1.45569e-06
1.49069e-06
-1.88974e-06
1.51702e-06
-2.28614e-06
1.52977e-06
-2.65001e-06
1.52993e-06
-2.9768e-06
1.51304e-06
-3.26054e-06
1.48004e-06
-3.49783e-06
1.43354e-06
-3.69087e-06
1.38063e-06
-3.84272e-06
1.32383e-06
-3.95644e-06
1.26456e-06
-4.03501e-06
1.20406e-06
-4.08123e-06
1.14326e-06
-4.09769e-06
1.08279e-06
-4.08672e-06
1.02313e-06
-4.05038e-06
9.6464e-07
-3.99047e-06
9.07456e-07
-3.90843e-06
8.51574e-07
-3.80546e-06
7.97122e-07
-3.68255e-06
7.44154e-07
-3.54039e-06
6.92648e-07
-3.37941e-06
6.42491e-07
-3.19981e-06
5.93547e-07
-3.00147e-06
5.45503e-07
-2.78397e-06
4.97985e-07
-2.54657e-06
4.50586e-07
-2.28861e-06
4.03409e-07
-2.00892e-06
3.55639e-07
-1.70618e-06
3.06725e-07
-1.3789e-06
2.56049e-07
-1.0254e-06
2.02804e-07
-6.4372e-07
1.46022e-07
-2.31572e-07
8.44895e-08
2.14363e-07
1.6212e-08
6.94507e-07
-5.60813e-08
1.2119e-06
-1.36053e-07
1.76983e-06
-2.25037e-07
2.37133e-06
-3.24015e-07
3.0196e-06
-4.34466e-07
3.71768e-06
-5.58076e-07
4.46767e-06
-6.96505e-07
5.27311e-06
-8.51549e-07
6.13842e-06
-1.02538e-06
7.06473e-06
-1.2212e-06
8.05268e-06
-1.44146e-06
9.10196e-06
-1.68921e-06
1.02115e-05
-1.96556e-06
1.13797e-05
-2.2725e-06
1.26029e-05
-2.60878e-06
1.38769e-05
-2.97574e-06
1.51964e-05
-3.36793e-06
1.65571e-05
-3.78428e-06
1.79527e-05
-4.21488e-06
1.93772e-05
-4.6581e-06
2.08249e-05
-5.10019e-06
2.22886e-05
-5.53948e-06
2.37615e-05
-5.95976e-06
2.52353e-05
-6.36062e-06
2.67022e-05
-6.72438e-06
2.81533e-05
-7.05323e-06
2.95809e-05
-7.32964e-06
3.09764e-05
-7.55936e-06
3.2332e-05
-7.72691e-06
3.36408e-05
-7.84313e-06
3.48969e-05
-7.89431e-06
3.60962e-05
-7.8952e-06
3.72344e-05
-7.83404e-06
3.83104e-05
-7.72898e-06
3.93213e-05
-7.5699e-06
4.02689e-05
-7.37738e-06
4.11517e-05
-7.14234e-06
4.19741e-05
-6.88639e-06
4.27352e-05
-6.6009e-06
4.34415e-05
-6.30725e-06
4.40922e-05
-5.99682e-06
4.46954e-05
-5.6898e-06
4.52495e-05
-5.37751e-06
4.57642e-05
-5.07821e-06
4.62365e-05
-4.78345e-06
4.66775e-05
-4.5091e-06
4.70827e-05
-4.24745e-06
4.74643e-05
-4.01158e-06
4.78159e-05
-3.79524e-06
4.81513e-05
-3.60833e-06
4.84618e-05
-3.44699e-06
4.87629e-05
-3.31739e-06
4.90429e-05
-3.21923e-06
4.9319e-05
-3.15439e-06
-3.13344e-06
-2.66815e-07
1.06978e-06
-8.62158e-07
1.95513e-06
-1.48174e-06
2.11028e-06
-2.00016e-06
2.03544e-06
-2.39025e-06
1.91985e-06
-2.65494e-06
1.79462e-06
-2.81209e-06
1.6702e-06
-2.88209e-06
1.55004e-06
-2.88234e-06
1.43379e-06
-2.82394e-06
1.32224e-06
-2.71531e-06
1.21519e-06
-2.5631e-06
1.11236e-06
-2.37311e-06
1.01407e-06
-2.15027e-06
9.20417e-07
-1.89876e-06
8.31276e-07
-1.62206e-06
7.46436e-07
-1.32311e-06
6.65691e-07
-1.00427e-06
5.88612e-07
-6.6728e-07
5.14588e-07
-3.13677e-07
4.43519e-07
5.54588e-08
3.75018e-07
4.39431e-07
3.08676e-07
8.37861e-07
2.44061e-07
1.25072e-06
1.80687e-07
1.6785e-06
1.17723e-07
2.12218e-06
5.43071e-08
2.58324e-06
-1.04754e-08
3.0612e-06
-7.45462e-08
3.55834e-06
-1.41504e-07
4.07644e-06
-2.11374e-07
4.61733e-06
-2.84842e-07
5.18305e-06
-3.62916e-07
5.77568e-06
-4.4661e-07
6.39724e-06
-5.37073e-07
7.04866e-06
-6.35201e-07
7.73439e-06
-7.41818e-07
8.45663e-06
-8.58289e-07
9.21774e-06
-9.86145e-07
1.00202e-05
-1.12652e-06
1.08667e-05
-1.28095e-06
1.17594e-05
-1.45078e-06
1.27007e-05
-1.63777e-06
1.36926e-05
-1.84346e-06
1.47368e-05
-2.06958e-06
1.58337e-05
-2.31808e-06
1.69829e-05
-2.59065e-06
1.81827e-05
-2.88904e-06
1.94307e-05
-3.21353e-06
2.0723e-05
-3.56484e-06
2.20552e-05
-3.94092e-06
2.34207e-05
-4.34123e-06
2.48132e-05
-4.76044e-06
2.62246e-05
-5.19574e-06
2.76476e-05
-5.63781e-06
2.90724e-05
-6.08295e-06
3.04913e-05
-6.51908e-06
3.18941e-05
-6.94232e-06
3.32728e-05
-7.33846e-06
3.46172e-05
-7.70503e-06
3.59197e-05
-8.02681e-06
3.71712e-05
-8.30473e-06
3.83656e-05
-8.52411e-06
3.94961e-05
-8.68985e-06
4.05583e-05
-8.78912e-06
4.15484e-05
-8.83317e-06
4.24652e-05
-8.81117e-06
4.33089e-05
-8.73892e-06
4.40805e-05
-8.60562e-06
4.47827e-05
-8.43117e-06
4.54179e-05
-8.20514e-06
4.59913e-05
-7.95071e-06
4.65057e-05
-7.65679e-06
4.69679e-05
-7.34856e-06
4.73805e-05
-7.01349e-06
4.7751e-05
-6.6777e-06
4.80809e-05
-6.32678e-06
4.83783e-05
-5.98715e-06
4.86431e-05
-5.64235e-06
4.88836e-05
-5.31875e-06
4.90982e-05
-4.99803e-06
4.92955e-05
-4.70635e-06
4.94718e-05
-4.42377e-06
4.96365e-05
-4.17625e-06
4.97839e-05
-3.94262e-06
4.99242e-05
-3.74862e-06
5.00495e-05
-3.57233e-06
5.01713e-05
-3.4392e-06
5.02791e-05
-3.32703e-06
5.03852e-05
-3.2605e-06
-3.2213e-06
-1.49371e-06
2.56349e-06
-1.94432e-06
2.40574e-06
-2.10954e-06
2.27549e-06
-2.12613e-06
2.05204e-06
-2.01395e-06
1.80767e-06
-1.79692e-06
1.57759e-06
-1.49431e-06
1.36758e-06
-1.1206e-06
1.17633e-06
-6.88426e-07
1.00162e-06
-2.10194e-07
8.44006e-07
3.04852e-07
7.00143e-07
8.48889e-07
5.68323e-07
1.41516e-06
4.4779e-07
1.99858e-06
3.37002e-07
2.59523e-06
2.34621e-07
3.20193e-06
1.39736e-07
3.81573e-06
5.18964e-08
4.43536e-06
-3.10169e-08
5.06091e-06
-1.10961e-07
5.69051e-06
-1.86087e-07
6.32373e-06
-2.58198e-07
6.96072e-06
-3.28314e-07
7.60187e-06
-3.97089e-07
8.24724e-06
-4.64687e-07
8.89838e-06
-5.3341e-07
9.55651e-06
-6.0382e-07
1.02224e-05
-6.76346e-07
1.08994e-05
-7.51604e-07
1.15888e-05
-8.30896e-07
1.22927e-05
-9.15225e-07
1.30132e-05
-1.00538e-06
1.37527e-05
-1.10243e-06
1.45134e-05
-1.20728e-06
1.52974e-05
-1.32108e-06
1.6107e-05
-1.4448e-06
1.69448e-05
-1.57959e-06
1.78128e-05
-1.72628e-06
1.8713e-05
-1.88636e-06
1.96472e-05
-2.06074e-06
2.06172e-05
-2.25093e-06
2.16242e-05
-2.45777e-06
2.26692e-05
-2.68281e-06
2.37526e-05
-2.9269e-06
2.48745e-05
-3.19143e-06
2.60333e-05
-3.47693e-06
2.72271e-05
-3.78441e-06
2.8452e-05
-4.11397e-06
2.97039e-05
-4.46539e-06
3.09765e-05
-4.83746e-06
3.22635e-05
-5.22792e-06
3.35562e-05
-5.63393e-06
3.4847e-05
-6.05124e-06
3.61251e-05
-6.47386e-06
3.73816e-05
-6.89429e-06
3.86053e-05
-7.30666e-06
3.97876e-05
-7.70141e-06
4.09179e-05
-8.07254e-06
4.19887e-05
-8.4093e-06
4.29912e-05
-8.70748e-06
4.39207e-05
-8.95629e-06
4.4771e-05
-9.1551e-06
4.55408e-05
-9.29393e-06
4.62279e-05
-9.37691e-06
4.68338e-05
-9.39503e-06
4.73589e-05
-9.35827e-06
4.78089e-05
-9.26116e-06
4.81884e-05
-9.11839e-06
4.85039e-05
-8.92109e-06
4.87617e-05
-8.68901e-06
4.89687e-05
-8.41211e-06
4.91321e-05
-8.11417e-06
4.92579e-05
-7.78253e-06
4.93533e-05
-7.44403e-06
4.94224e-05
-7.08261e-06
4.94723e-05
-6.72754e-06
4.95045e-05
-6.35897e-06
4.95256e-05
-6.00832e-06
4.95351e-05
-5.65182e-06
4.95393e-05
-5.32297e-06
4.95355e-05
-4.99418e-06
4.95301e-05
-4.70101e-06
4.95186e-05
-4.41219e-06
4.95077e-05
-4.16543e-06
4.94911e-05
-3.92598e-06
4.94763e-05
-3.7338e-06
4.94549e-05
-3.55096e-06
4.94354e-05
-3.4197e-06
4.94076e-05
-3.29929e-06
4.93815e-05
-3.23435e-06
-3.17775e-06
-8.94916e-07
3.45841e-06
-7.41916e-07
2.25274e-06
-2.53101e-07
1.78668e-06
4.5686e-07
1.34207e-06
1.32276e-06
9.4177e-07
2.27851e-06
6.2184e-07
3.27773e-06
3.68352e-07
4.29301e-06
1.61054e-07
5.31071e-06
-1.60805e-08
6.31534e-06
-1.60626e-07
7.30929e-06
-2.93804e-07
8.29004e-06
-4.12433e-07
9.25329e-06
-5.15453e-07
1.01982e-05
-6.07944e-07
1.11247e-05
-6.91815e-07
1.20327e-05
-7.68313e-07
1.29232e-05
-8.38611e-07
1.37964e-05
-9.04195e-07
1.46518e-05
-9.66378e-07
1.54915e-05
-1.02572e-06
1.63166e-05
-1.08332e-06
1.71286e-05
-1.14038e-06
1.79292e-05
-1.19769e-06
1.87207e-05
-1.25611e-06
1.95049e-05
-1.31765e-06
2.0284e-05
-1.38295e-06
2.10605e-05
-1.45281e-06
2.1837e-05
-1.52812e-06
2.26159e-05
-1.60974e-06
2.33994e-05
-1.69878e-06
2.41902e-05
-1.79612e-06
2.49904e-05
-1.90271e-06
2.58024e-05
-2.01925e-06
2.66281e-05
-2.14678e-06
2.74693e-05
-2.28605e-06
2.83279e-05
-2.43812e-06
2.92052e-05
-2.60359e-06
3.01024e-05
-2.78355e-06
3.10202e-05
-2.9786e-06
3.19591e-05
-3.1898e-06
3.29189e-05
-3.41753e-06
3.38988e-05
-3.66276e-06
3.48977e-05
-3.92579e-06
3.59137e-05
-4.20745e-06
3.69435e-05
-4.5067e-06
3.7983e-05
-4.82392e-06
3.90269e-05
-5.15787e-06
4.00692e-05
-5.50766e-06
4.11023e-05
-5.87058e-06
4.21186e-05
-6.24419e-06
4.31087e-05
-6.62409e-06
4.40635e-05
-7.00598e-06
4.49731e-05
-7.38347e-06
4.58294e-05
-7.75058e-06
4.66229e-05
-8.10022e-06
4.73472e-05
-8.42564e-06
4.79947e-05
-8.72004e-06
4.85621e-05
-8.97673e-06
4.90453e-05
-9.19067e-06
4.94451e-05
-9.3561e-06
4.9761e-05
-9.47105e-06
4.99981e-05
-9.53097e-06
5.01592e-05
-9.53804e-06
5.0253e-05
-9.48878e-06
5.0285e-05
-9.39027e-06
5.02652e-05
-9.24138e-06
5.02005e-05
-9.05369e-06
5.01011e-05
-8.82177e-06
4.99737e-05
-8.56159e-06
4.98269e-05
-8.26526e-06
4.9666e-05
-7.95331e-06
4.94972e-05
-7.61374e-06
4.93248e-05
-7.27157e-06
4.91518e-05
-6.9096e-06
4.89816e-05
-6.55743e-06
4.88146e-05
-6.19191e-06
4.86538e-05
-5.84757e-06
4.84969e-05
-5.49492e-06
4.83478e-05
-5.17383e-06
4.82016e-05
-4.84802e-06
4.80636e-05
-4.56294e-06
4.79265e-05
-4.27515e-06
4.77973e-05
-4.03615e-06
4.76663e-05
-3.79506e-06
4.75423e-05
-3.6098e-06
4.74133e-05
-3.42192e-06
4.72896e-05
-3.29601e-06
4.71565e-05
-3.1662e-06
4.70263e-05
-3.10409e-06
-3.03344e-06
3.65072e-06
-1.92307e-07
6.37209e-06
-4.68634e-07
8.77878e-06
-6.20007e-07
1.0895e-05
-7.7418e-07
1.27638e-05
-9.26994e-07
1.44492e-05
-1.06361e-06
1.59961e-05
-1.17848e-06
1.74216e-05
-1.26442e-06
1.87505e-05
-1.34503e-06
2.00062e-05
-1.41634e-06
2.11912e-05
-1.47875e-06
2.23127e-05
-1.53397e-06
2.33799e-05
-1.58266e-06
2.43978e-05
-1.62585e-06
2.53705e-05
-1.66454e-06
2.63018e-05
-1.69961e-06
2.71951e-05
-1.73191e-06
2.80533e-05
-1.76234e-06
2.88789e-05
-1.79197e-06
2.96749e-05
-1.82178e-06
3.04443e-05
-1.85271e-06
3.11897e-05
-1.88576e-06
3.1914e-05
-1.92197e-06
3.26203e-05
-1.9624e-06
3.33108e-05
-2.0082e-06
3.39882e-05
-2.06037e-06
3.46551e-05
-2.11972e-06
3.53141e-05
-2.18707e-06
3.59675e-05
-2.26313e-06
3.66174e-05
-2.34874e-06
3.72661e-05
-2.44481e-06
3.79155e-05
-2.55209e-06
3.85671e-05
-2.67078e-06
3.92221e-05
-2.80178e-06
3.98816e-05
-2.94561e-06
4.05464e-05
-3.10291e-06
4.12169e-05
-3.27407e-06
4.1893e-05
-3.45966e-06
4.25743e-05
-3.65994e-06
4.32599e-05
-3.87537e-06
4.39483e-05
-4.10597e-06
4.46376e-05
-4.35199e-06
4.53249e-05
-4.61309e-06
4.60065e-05
-4.88906e-06
4.66786e-05
-5.17881e-06
4.73362e-05
-5.48154e-06
4.79737e-05
-5.79541e-06
4.85848e-05
-6.11876e-06
4.91628e-05
-6.44854e-06
4.97005e-05
-6.78192e-06
5.01908e-05
-7.1144e-06
5.06269e-05
-7.44201e-06
5.10024e-05
-7.75901e-06
5.13125e-05
-8.06065e-06
5.15528e-05
-8.34057e-06
5.17213e-05
-8.59414e-06
5.18167e-05
-8.8154e-06
5.18408e-05
-9.00084e-06
5.17961e-05
-9.14595e-06
5.16886e-05
-9.24858e-06
5.15235e-05
-9.30601e-06
5.13101e-05
-9.31756e-06
5.10549e-05
-9.28277e-06
5.07686e-05
-9.20254e-06
5.04584e-05
-9.08009e-06
5.01339e-05
-8.9168e-06
4.97988e-05
-8.71865e-06
4.94623e-05
-8.48523e-06
4.91259e-05
-8.22524e-06
4.87964e-05
-7.93568e-06
4.84725e-05
-7.62942e-06
4.81587e-05
-7.29998e-06
4.78525e-05
-6.96535e-06
4.75567e-05
-6.61382e-06
4.72683e-05
-6.26905e-06
4.69888e-05
-5.91239e-06
4.67157e-05
-5.57443e-06
4.64491e-05
-5.22829e-06
4.6188e-05
-4.91275e-06
4.59309e-05
-4.59096e-06
4.56791e-05
-4.31113e-06
4.54286e-05
-4.02466e-06
4.51834e-05
-3.79096e-06
4.49363e-05
-3.5479e-06
4.46945e-05
-3.36799e-06
4.44463e-05
-3.17371e-06
4.42029e-05
-3.05263e-06
4.39467e-05
-2.90995e-06
4.36926e-05
-2.85003e-06
-2.76518e-06
3.85998e-05
1.69719e-08
3.85657e-05
-4.34552e-07
3.87018e-05
-7.56133e-07
3.89237e-05
-9.96098e-07
3.91935e-05
-1.19674e-06
3.95052e-05
-1.37534e-06
3.98601e-05
-1.53337e-06
4.02595e-05
-1.66383e-06
4.06831e-05
-1.76861e-06
4.11212e-05
-1.85446e-06
4.15667e-05
-1.92422e-06
4.20139e-05
-1.98125e-06
4.2459e-05
-2.02777e-06
4.28987e-05
-2.06553e-06
4.33304e-05
-2.0962e-06
4.37521e-05
-2.12134e-06
4.41627e-05
-2.14245e-06
4.45613e-05
-2.16099e-06
4.49477e-05
-2.17839e-06
4.5322e-05
-2.19606e-06
4.56846e-05
-2.21534e-06
4.60363e-05
-2.23748e-06
4.63781e-05
-2.26372e-06
4.6711e-05
-2.29526e-06
4.70359e-05
-2.33317e-06
4.73541e-05
-2.37849e-06
4.76665e-05
-2.43212e-06
4.79742e-05
-2.49486e-06
4.82785e-05
-2.56739e-06
4.85802e-05
-2.65039e-06
4.88798e-05
-2.74447e-06
4.91779e-05
-2.85014e-06
4.94749e-05
-2.96778e-06
4.97709e-05
-3.09779e-06
5.00658e-05
-3.24053e-06
5.03592e-05
-3.39629e-06
5.06504e-05
-3.56527e-06
5.09384e-05
-3.74764e-06
5.12218e-05
-3.94341e-06
5.1499e-05
-4.15255e-06
5.17679e-05
-4.37487e-06
5.2026e-05
-4.61004e-06
5.22703e-05
-4.85745e-06
5.24976e-05
-5.11637e-06
5.27045e-05
-5.38564e-06
5.28868e-05
-5.6639e-06
5.30407e-05
-5.94931e-06
5.31618e-05
-6.23979e-06
5.32459e-05
-6.53268e-06
5.32891e-05
-6.82513e-06
5.32882e-05
-7.11351e-06
5.32404e-05
-7.39418e-06
5.31441e-05
-7.66276e-06
5.29988e-05
-7.91532e-06
5.28054e-05
-8.14716e-06
5.25658e-05
-8.3546e-06
5.22835e-05
-8.53303e-06
5.19629e-05
-8.68024e-06
5.16098e-05
-8.79286e-06
5.12305e-05
-8.8693e-06
5.08312e-05
-8.90666e-06
5.04183e-05
-8.90469e-06
4.99968e-05
-8.86128e-06
4.9572e-05
-8.77779e-06
4.91459e-05
-8.65397e-06
4.87218e-05
-8.49268e-06
4.82984e-05
-8.29526e-06
4.78782e-05
-8.06502e-06
4.74579e-05
-7.80489e-06
4.70398e-05
-7.51762e-06
4.66189e-05
-7.20848e-06
4.61982e-05
-6.87936e-06
4.57722e-05
-6.53932e-06
4.53457e-05
-6.18735e-06
4.4913e-05
-5.83631e-06
4.44805e-05
-5.47993e-06
4.40425e-05
-5.13641e-06
4.36065e-05
-4.79227e-06
4.31667e-05
-4.47297e-06
4.27308e-05
-4.15506e-06
4.22933e-05
-3.87367e-06
4.18608e-05
-3.59217e-06
4.14288e-05
-3.35888e-06
4.1001e-05
-3.12011e-06
4.05749e-05
-2.94191e-06
4.01497e-05
-2.74852e-06
3.97265e-05
-2.62945e-06
3.92974e-05
-2.48088e-06
3.88697e-05
-2.4223e-06
-2.32061e-06
5.29803e-05
9.4807e-08
5.28844e-05
-3.38661e-07
5.2854e-05
-7.25721e-07
5.28762e-05
-1.01833e-06
5.29199e-05
-1.24039e-06
5.29657e-05
-1.42121e-06
5.30101e-05
-1.57774e-06
5.30608e-05
-1.7145e-06
5.31228e-05
-1.83069e-06
5.31948e-05
-1.92638e-06
5.32739e-05
-2.00334e-06
5.3357e-05
-2.06431e-06
5.34414e-05
-2.11217e-06
5.35253e-05
-2.14946e-06
5.36074e-05
-2.17833e-06
5.36867e-05
-2.20065e-06
5.37624e-05
-2.21817e-06
5.3834e-05
-2.23256e-06
5.39011e-05
-2.24544e-06
5.39634e-05
-2.25839e-06
5.4021e-05
-2.27292e-06
5.40739e-05
-2.29045e-06
5.41225e-05
-2.31232e-06
5.4167e-05
-2.33976e-06
5.42077e-05
-2.37386e-06
5.42449e-05
-2.41566e-06
5.42788e-05
-2.46603e-06
5.43097e-05
-2.52576e-06
5.43378e-05
-2.59548e-06
5.43632e-05
-2.67577e-06
5.43858e-05
-2.76707e-06
5.44054e-05
-2.8698e-06
5.44219e-05
-2.98428e-06
5.44349e-05
-3.11075e-06
5.44437e-05
-3.2494e-06
5.44478e-05
-3.40036e-06
5.44462e-05
-3.5637e-06
5.4438e-05
-3.73938e-06
5.44219e-05
-3.92731e-06
5.43966e-05
-4.12727e-06
5.43606e-05
-4.33891e-06
5.43124e-05
-4.56176e-06
5.42501e-05
-4.79514e-06
5.41719e-05
-5.03818e-06
5.4076e-05
-5.28976e-06
5.39606e-05
-5.54845e-06
5.38238e-05
-5.81253e-06
5.36638e-05
-6.07986e-06
5.34794e-05
-6.34826e-06
5.32694e-05
-6.61516e-06
5.30334e-05
-6.87744e-06
5.27709e-05
-7.13173e-06
5.24827e-05
-7.37448e-06
5.21693e-05
-7.60197e-06
5.18326e-05
-7.81041e-06
5.1474e-05
-7.99607e-06
5.10962e-05
-8.15517e-06
5.07005e-05
-8.28461e-06
5.02889e-05
-8.38126e-06
4.98623e-05
-8.44263e-06
4.94216e-05
-8.46598e-06
4.89665e-05
-8.44959e-06
4.84962e-05
-8.39103e-06
4.8009e-05
-8.29055e-06
4.75028e-05
-8.1478e-06
4.69758e-05
-7.96566e-06
4.64256e-05
-7.74503e-06
4.58505e-05
-7.49e-06
4.52494e-05
-7.20371e-06
4.46238e-05
-6.89206e-06
4.39731e-05
-6.5578e-06
4.33016e-05
-6.20789e-06
4.2609e-05
-5.8467e-06
4.19026e-05
-5.48089e-06
4.11816e-05
-5.11531e-06
4.04562e-05
-4.75453e-06
3.97242e-05
-4.40442e-06
3.89978e-05
-4.06592e-06
3.8272e-05
-3.7471e-06
3.75602e-05
-3.44328e-06
3.68536e-05
-3.16712e-06
3.61672e-05
-2.9057e-06
3.5488e-05
-2.67972e-06
3.48316e-05
-2.46375e-06
3.4182e-05
-2.29229e-06
3.3554e-05
-2.12054e-06
3.29299e-05
-2.00532e-06
3.23222e-05
-1.87319e-06
3.17159e-05
-1.81598e-06
-1.7127e-06
5.43179e-05
-2.24767e-07
5.4501e-05
-5.21733e-07
5.46055e-05
-8.30279e-07
5.4693e-05
-1.10579e-06
5.47801e-05