/*--------------------------------*- C++ -*----------------------------------*\
| =========                 |                                                 |
| \\      /  F ield         | OpenFOAM: The Open Source CFD Toolbox           |
|  \\    /   O peration     | Version:  2306                                  |
|   \\  /    A nd           | Website:  www.openfoam.com                      |
|    \\/     M anipulation  |                                                 |
\*---------------------------------------------------------------------------*/
FoamFile
{
    version     2.0;
    format      ascii;
    arch        "LSB;label=32;scalar=64";
    class       volVectorField;
    location    "5";
    object      U;
}
// * * * * * * * * * * * * * * * * * * * * * * * * * * * * * * * * * * * * * //

dimensions      [0 1 -1 0 0 0 0];

internalField   nonuniform List<vector> 
1900
(
(0.984278 0.00728848 0)
(0.961755 0.0216853 0)
(0.952333 0.0181745 0)
(0.918697 0.0253045 0)
(0.903421 0.0154392 0)
(0.863063 0.0257495 0)
(0.852267 0.0115962 0)
(0.811952 0.0267265 0)
(0.809652 0.0045581 0)
(0.770456 0.0259726 0)
(1.00256 0.0115592 0)
(1.00446 0.0258616 0)
(1.01944 0.0289645 0)
(1.02197 0.0304563 0)
(1.03487 0.0280051 0)
(1.03396 0.028419 0)
(1.04405 0.0257841 0)
(1.04278 0.0250924 0)
(1.05118 0.0206645 0)
(1.05226 0.0161986 0)
(1.00048 0.0038867 0)
(1.00419 0.0111554 0)
(1.01255 0.0139994 0)
(1.02113 0.015788 0)
(1.03154 0.0147135 0)
(1.04053 0.014421 0)
(1.04998 0.0123776 0)
(1.05839 0.010932 0)
(1.06686 0.0073116 0)
(1.0747 0.00315256 0)
(1.00007 0.00207732 0)
(1.00313 0.00584349 0)
(1.00888 0.00805581 0)
(1.01649 0.00903606 0)
(1.02527 0.00855685 0)
(1.03431 0.00745709 0)
(1.04324 0.00567685 0)
(1.0518 0.00351363 0)
(1.05997 0.000686303 0)
(1.06764 -0.00283106 0)
(1.00003 0.000424818 0)
(1.00261 0.00117305 0)
(1.00738 0.00143611 0)
(1.01402 0.00115561 0)
(1.02191 0.000257067 0)
(1.03035 -0.00110697 0)
(1.03879 -0.00290141 0)
(1.04691 -0.00510341 0)
(1.05459 -0.00776018 0)
(1.06173 -0.0109327 0)
(1.00003 -0.0010602 0)
(1.00255 -0.00302563 0)
(1.0072 -0.0047467 0)
(1.01366 -0.0061841 0)
(1.02133 -0.00748336 0)
(1.02949 -0.00884519 0)
(1.03758 -0.0104554 0)
(1.04532 -0.0124246 0)
(1.05259 -0.014793 0)
(1.05937 -0.0175313 0)
(1.00003 -0.00270995 0)
(1.00303 -0.00743022 0)
(1.00836 -0.011055 0)
(1.01546 -0.0134899 0)
(1.02347 -0.0151123 0)
(1.03163 -0.0164715 0)
(1.0395 -0.0179723 0)
(1.0469 -0.0197929 0)
(1.05382 -0.0219259 0)
(1.06031 -0.0242819 0)
(1.00004 -0.00476842 0)
(1.00441 -0.0122305 0)
(1.01137 -0.0169122 0)
(1.0198 -0.0193406 0)
(1.0284 -0.0206639 0)
(1.0364 -0.021831 0)
(1.0436 -0.0232902 0)
(1.05008 -0.0250684 0)
(1.05596 -0.0270243 0)
(1.06127 -0.0290243 0)
(1.00006 -0.0121181 0)
(1.00722 -0.0259495 0)
(1.01558 -0.0314251 0)
(1.02288 -0.0325715 0)
(1.02794 -0.0326523 0)
(1.03074 -0.0330238 0)
(1.03175 -0.0337983 0)
(1.03145 -0.0347124 0)
(1.03005 -0.0355505 0)
(1.02756 -0.0362532 0)
(0.980777 -0.0091633 0)
(0.964587 -0.0188208 0)
(0.945461 -0.0220447 0)
(0.920796 -0.0221831 0)
(0.892012 -0.0217357 0)
(0.861705 -0.021573 0)
(0.831474 -0.021603 0)
(0.801799 -0.0215903 0)
(0.77261 -0.0214109 0)
(0.743665 -0.0210802 0)
(0.000207291 -0.000109677 0)
(0.000345767 -2.05703e-05 0)
(8.41822e-05 2.73907e-05 0)
(-0.000399574 5.67567e-05 0)
(-0.00104646 7.47736e-05 0)
(-0.0018142 9.21416e-05 0)
(-0.00268922 0.000112403 0)
(-0.00366652 0.000134537 0)
(-0.00474088 0.00015735 0)
(-0.00590606 0.000180153 0)
(-0.0071551 0.000202531 0)
(-0.0084806 0.000224189 0)
(-0.00987508 0.000244888 0)
(-0.0113311 0.000264427 0)
(-0.0128417 0.000282655 0)
(-0.0143998 0.000299471 0)
(-0.0159993 0.00031482 0)
(-0.0176342 0.000328672 0)
(-0.0192991 0.000340997 0)
(-0.0209895 0.000351799 0)
(-0.0227013 0.000361121 0)
(-0.0244319 0.000369044 0)
(-0.0261794 0.000375679 0)
(-0.0279435 0.000381145 0)
(-0.029725 0.000385578 0)
(-0.0315262 0.000389156 0)
(-0.033351 0.000392096 0)
(-0.0352049 0.000394592 0)
(-0.0370951 0.000396756 0)
(-0.03903 0.00039857 0)
(-0.0410196 0.000399805 0)
(-0.0430748 0.000399963 0)
(-0.0452072 0.000398401 0)
(-0.0474303 0.000394718 0)
(-0.0497599 0.000389352 0)
(-0.0522167 0.000384193 0)
(-0.0548278 0.00038334 0)
(-0.05763 0.000394163 0)
(-0.0606726 0.000428333 0)
(-0.0640207 0.000502819 0)
(-0.0677576 0.000640231 0)
(-0.0719847 0.000867329 0)
(-0.0768169 0.00121046 0)
(-0.0823714 0.00168849 0)
(-0.0887494 0.00230477 0)
(-0.0960126 0.00304082 0)
(-0.104161 0.00385372 0)
(-0.113113 0.0046782 0)
(-0.122694 0.00543174 0)
(-0.132631 0.006026 0)
(-0.14257 0.00638592 0)
(-0.15211 0.00646735 0)
(-0.160839 0.00626533 0)
(-0.168353 0.00581225 0)
(-0.174297 0.00518339 0)
(-0.178376 0.00443817 0)
(-0.180348 0.00353221 0)
(-0.180066 0.00246822 0)
(-0.177487 0.00128925 0)
(-0.172596 6.935e-05 0)
(-0.165408 -0.00115729 0)
(-0.156033 -0.00234194 0)
(-0.144625 -0.00344216 0)
(-0.131383 -0.00444857 0)
(-0.116502 -0.00532124 0)
(-0.100225 -0.00605671 0)
(-0.0828343 -0.00663838 0)
(-0.0644724 -0.00711558 0)
(-0.0456163 -0.00735648 0)
(-0.0262259 -0.00751413 0)
(-0.0069746 -0.00752228 0)
(0.0125482 -0.00745133 0)
(0.0313308 -0.00724226 0)
(0.0502166 -0.00699272 0)
(0.0678264 -0.00661678 0)
(0.0854988 -0.00624977 0)
(0.101429 -0.00577381 0)
(0.117544 -0.00535694 0)
(0.131498 -0.00484552 0)
(0.145947 -0.00444255 0)
(0.157817 -0.00395383 0)
(0.170718 -0.00362249 0)
(0.180543 -0.00320504 0)
(0.192239 -0.00299272 0)
(0.200115 -0.00267933 0)
(0.211242 -0.00261419 0)
(0.217174 -0.00241787 0)
(0.228863 -0.00254852 0)
(0.232419 -0.00245859 0)
(0.246729 -0.00305224 0)
(6.21598e-05 -0.000518378 0)
(-0.000524468 0.000141995 0)
(-0.00202014 0.000713962 0)
(-0.00393363 0.00111853 0)
(-0.00623259 0.00139777 0)
(-0.00884347 0.00161956 0)
(-0.0117287 0.00182012 0)
(-0.0148598 0.00200754 0)
(-0.0182078 0.00218194 0)
(-0.0217449 0.00234244 0)
(-0.025445 0.00248829 0)
(-0.0292827 0.00261926 0)
(-0.0332346 0.0027356 0)
(-0.0372787 0.0028379 0)
(-0.0413956 0.00292692 0)
(-0.0455679 0.00300361 0)
(-0.0497808 0.00306898 0)
(-0.054022 0.00312409 0)
(-0.0582816 0.00317007 0)
(-0.0625524 0.00320848 0)
(-0.0668303 0.00324126 0)
(-0.0711142 0.00327062 0)
(-0.0754061 0.00329895 0)
(-0.0797112 0.0033288 0)
(-0.0840378 0.00336288 0)
(-0.0883972 0.0034042 0)
(-0.092804 0.00345599 0)
(-0.0972759 0.00352156 0)
(-0.101833 0.00360404 0)
(-0.106499 0.00370645 0)
(-0.111299 0.00383154 0)
(-0.116257 0.00398198 0)
(-0.121402 0.0041609 0)
(-0.12676 0.00437295 0)
(-0.13236 0.0046253 0)
(-0.138228 0.00492778 0)
(-0.144394 0.00529274 0)
(-0.150879 0.00573561 0)
(-0.157701 0.00627399 0)
(-0.164868 0.00692586 0)
(-0.172371 0.007706 0)
(-0.180182 0.00862011 0)
(-0.188243 0.00965666 0)
(-0.196464 0.0107802 0)
(-0.20471 0.0119262 0)
(-0.212804 0.0130031 0)
(-0.220526 0.0139006 0)
(-0.227629 0.0145048 0)
(-0.233844 0.0147062 0)
(-0.238882 0.0144088 0)
(-0.242452 0.0135542 0)
(-0.244276 0.0121416 0)
(-0.244105 0.0102061 0)
(-0.241703 0.0077438 0)
(-0.236948 0.00482834 0)
(-0.22987 0.00157591 0)
(-0.220347 -0.00190086 0)
(-0.20844 -0.00549704 0)
(-0.194089 -0.00913018 0)
(-0.177477 -0.0126761 0)
(-0.158604 -0.0160986 0)
(-0.137753 -0.0192908 0)
(-0.115024 -0.0221005 0)
(-0.0907362 -0.0246225 0)
(-0.0650741 -0.0267888 0)
(-0.0382546 -0.0285889 0)
(-0.0107942 -0.0300051 0)
(0.0176719 -0.0310358 0)
(0.0459825 -0.0316515 0)
(0.0751732 -0.0319538 0)
(0.103085 -0.0318578 0)
(0.132152 -0.0315376 0)
(0.158903 -0.0308432 0)
(0.187182 -0.030033 0)
(0.212088 -0.0288843 0)
(0.239111 -0.0277408 0)
(0.261644 -0.0263023 0)
(0.287194 -0.0249937 0)
(0.306985 -0.0234259 0)
(0.331104 -0.0221113 0)
(0.347915 -0.0205573 0)
(0.370898 -0.0193791 0)
(0.384577 -0.0179592 0)
(0.406972 -0.017043 0)
(0.41741 -0.0158544 0)
(0.440029 -0.0153132 0)
(0.447109 -0.0144317 0)
(0.471005 -0.014397 0)
(0.474573 -0.0138996 0)
(0.500888 -0.0146068 0)
(-0.000160022 0.00042505 0)
(-0.00194705 0.00229108 0)
(-0.00542859 0.0035117 0)
(-0.00938673 0.00433057 0)
(-0.0137861 0.00497018 0)
(-0.0185247 0.0055364 0)
(-0.0235607 0.00605471 0)
(-0.0288546 0.00652534 0)
(-0.0343533 0.00694406 0)
(-0.0400053 0.00730946 0)
(-0.045764 0.00762167 0)
(-0.0515876 0.00788281 0)
(-0.05744 0.00809652 0)
(-0.0632908 0.00826714 0)
(-0.0691151 0.0083994 0)
(-0.0748929 0.00849827 0)
(-0.0806092 0.00856887 0)
(-0.0862527 0.00861653 0)
(-0.0918161 0.00864695 0)
(-0.0972948 0.00866584 0)
(-0.102688 0.0086791 0)
(-0.107998 0.0086928 0)
(-0.113229 0.00871304 0)
(-0.118389 0.0087459 0)
(-0.123486 0.00879733 0)
(-0.128528 0.00887337 0)
(-0.133525 0.00898013 0)
(-0.138487 0.00912325 0)
(-0.143423 0.00930734 0)
(-0.148341 0.00953612 0)
(-0.153244 0.00981203 0)
(-0.158134 0.0101362 0)
(-0.163005 0.0105086 0)
(-0.167847 0.010929 0)
(-0.172644 0.0113975 0)
(-0.177373 0.0119142 0)
(-0.182002 0.0124782 0)
(-0.186489 0.0130875 0)
(-0.190778 0.0137381 0)
(-0.1948 0.0144218 0)
(-0.198469 0.0151245 0)
(-0.201685 0.0158243 0)
(-0.204329 0.0164871 0)
(-0.206265 0.0170567 0)
(-0.207343 0.0174517 0)
(-0.207397 0.0175716 0)
(-0.206251 0.0173037 0)
(-0.203746 0.0165478 0)
(-0.199741 0.0152193 0)
(-0.194096 0.0132262 0)
(-0.186676 0.010516 0)
(-0.177393 0.00709296 0)
(-0.166317 0.00299726 0)
(-0.153326 -0.00165779 0)
(-0.138432 -0.00686529 0)
(-0.121718 -0.012459 0)
(-0.102957 -0.0182988 0)
(-0.0825812 -0.0241515 0)
(-0.0603464 -0.0299378 0)
(-0.0368027 -0.0354726 0)
(-0.0116376 -0.0407526 0)
(0.0146285 -0.0455268 0)
(0.0423118 -0.0498299 0)
(0.0707354 -0.0535159 0)
(0.0997892 -0.0566535 0)
(0.129586 -0.059124 0)
(0.159179 -0.0610449 0)
(0.189684 -0.062258 0)
(0.218916 -0.0629071 0)
(0.24946 -0.063019 0)
(0.277529 -0.0625604 0)
(0.307463 -0.0616903 0)
(0.333691 -0.0603088 0)
(0.362563 -0.0586749 0)
(0.386427 -0.0566122 0)
(0.413979 -0.0544724 0)
(0.435104 -0.051989 0)
(0.461289 -0.0496065 0)
(0.479441 -0.0469527 0)
(0.504413 -0.0445729 0)
(0.519472 -0.0419698 0)
(0.543574 -0.0398078 0)
(0.555502 -0.0374408 0)
(0.579238 -0.0356823 0)
(0.588053 -0.033706 0)
(0.612071 -0.0325227 0)
(0.617823 -0.031077 0)
(0.642881 -0.0306469 0)
(0.645619 -0.0298757 0)
(0.67252 -0.0303815 0)
(-0.000920607 0.00121422 0)
(-0.00479478 0.00509865 0)
(-0.0107105 0.00757872 0)
(-0.0167766 0.00924547 0)
(-0.0231714 0.0104862 0)
(-0.0298448 0.0114723 0)
(-0.0367115 0.0122767 0)
(-0.0436746 0.012937 0)
(-0.050644 0.0134677 0)
(-0.0575483 0.0138812 0)
(-0.0643327 0.0141899 0)
(-0.0709536 0.0144059 0)
(-0.0773792 0.0145409 0)
(-0.0835869 0.0146064 0)
(-0.0895619 0.0146137 0)
(-0.0952949 0.0145733 0)
(-0.100781 0.0144951 0)
(-0.10602 0.0143885 0)
(-0.111011 0.0142622 0)
(-0.115758 0.0141248 0)
(-0.120266 0.0139844 0)
(-0.124538 0.0138488 0)
(-0.12858 0.0137248 0)
(-0.132395 0.0136188 0)
(-0.135986 0.013536 0)
(-0.139352 0.013481 0)
(-0.142494 0.013458 0)
(-0.145405 0.0134704 0)
(-0.14808 0.013519 0)
(-0.150507 0.0136027 0)
(-0.15267 0.0137187 0)
(-0.154549 0.0138618 0)
(-0.156117 0.0140248 0)
(-0.157341 0.0141994 0)
(-0.158181 0.0143783 0)
(-0.158593 0.0145558 0)
(-0.158524 0.0147224 0)
(-0.157912 0.0148673 0)
(-0.156687 0.0149772 0)
(-0.154768 0.015034 0)
(-0.152061 0.0150133 0)
(-0.148462 0.0148857 0)
(-0.143868 0.014616 0)
(-0.138179 0.0141457 0)
(-0.131285 0.0133849 0)
(-0.12309 0.012241 0)
(-0.113474 0.0105924 0)
(-0.102365 0.00833811 0)
(-0.0897902 0.00539703 0)
(-0.0756941 0.00176198 0)
(-0.0600444 -0.00260997 0)
(-0.0429371 -0.00770332 0)
(-0.0243303 -0.0135309 0)
(-0.00429137 -0.0199124 0)
(0.017314 -0.0267209 0)
(0.0399704 -0.0337009 0)
(0.0642313 -0.0408424 0)
(0.0892704 -0.0479151 0)
(0.115846 -0.054903 0)
(0.142917 -0.0615101 0)
(0.171334 -0.0678309 0)
(0.200002 -0.0734023 0)
(0.22958 -0.0784673 0)
(0.259368 -0.082728 0)
(0.28941 -0.0863172 0)
(0.319651 -0.089005 0)
(0.349351 -0.0909541 0)
(0.379424 -0.0920195 0)
(0.408024 -0.0923585 0)
(0.437356 -0.0919326 0)
(0.464191 -0.0908487 0)
(0.49233 -0.0891616 0)
(0.516868 -0.0869235 0)
(0.543522 -0.084284 0)
(0.565391 -0.0812206 0)
(0.590446 -0.0779772 0)
(0.609425 -0.0744332 0)
(0.632944 -0.070932 0)
(0.648944 -0.0672326 0)
(0.671144 -0.0637899 0)
(0.684178 -0.0602194 0)
(0.705414 -0.0571085 0)
(0.715563 -0.0539032 0)
(0.736299 -0.0513552 0)
(0.743683 -0.0487098 0)
(0.764469 -0.0469256 0)
(0.769222 -0.0450089 0)
(0.790674 -0.044177 0)
(0.79292 -0.0431461 0)
(0.815701 -0.043447 0)
(-0.00127762 0.0069183 0)
(-0.00686799 0.0137672 0)
(-0.015496 0.0164003 0)
(-0.023997 0.0175679 0)
(-0.0325125 0.0184108 0)
(-0.0407955 0.0192015 0)
(-0.0487171 0.019891 0)
(-0.0562358 0.0204026 0)
(-0.0633213 0.0207175 0)
(-0.0699407 0.0208619 0)
(-0.0760757 0.0208644 0)
(-0.0817199 0.0207501 0)
(-0.0868767 0.0205412 0)
(-0.0915555 0.0202571 0)
(-0.0957704 0.0199147 0)
(-0.0995381 0.0195287 0)
(-0.102876 0.0191114 0)
(-0.105801 0.0186728 0)
(-0.10833 0.0182215 0)
(-0.110475 0.0177659 0)
(-0.11225 0.0173137 0)
(-0.113666 0.0168714 0)
(-0.114729 0.0164442 0)
(-0.115444 0.0160363 0)
(-0.115812 0.0156495 0)
(-0.115829 0.0152849 0)
(-0.115487 0.0149432 0)
(-0.114777 0.0146252 0)
(-0.113683 0.0143269 0)
(-0.112187 0.0140424 0)
(-0.110265 0.013764 0)
(-0.107891 0.0134815 0)
(-0.105031 0.013182 0)
(-0.101645 0.0128517 0)
(-0.0976854 0.0124791 0)
(-0.093114 0.0120623 0)
(-0.0878711 0.0115824 0)
(-0.0819014 0.0110193 0)
(-0.0751384 0.0103525 0)
(-0.0675106 0.00955957 0)
(-0.0589298 0.00860899 0)
(-0.0492991 0.00745644 0)
(-0.0385541 0.00604262 0)
(-0.0266497 0.00431725 0)
(-0.0134638 0.00222191 0)
(0.00100348 -0.000315393 0)
(0.0168246 -0.00338462 0)
(0.0339622 -0.00704716 0)
(0.0524721 -0.0114074 0)
(0.0722415 -0.0164781 0)
(0.0934915 -0.022278 0)
(0.115767 -0.0287276 0)
(0.139476 -0.0357492 0)
(0.163921 -0.0432328 0)
(0.189828 -0.0511296 0)
(0.216136 -0.0591702 0)
(0.243853 -0.0673427 0)
(0.271681 -0.075333 0)
(0.300796 -0.0831587 0)
(0.329725 -0.0904684 0)
(0.359702 -0.0973311 0)
(0.38921 -0.103372 0)
(0.419398 -0.108738 0)
(0.448893 -0.113103 0)
(0.478593 -0.116652 0)
(0.507459 -0.119107 0)
(0.535954 -0.120701 0)
(0.563639 -0.121222 0)
(0.590315 -0.120928 0)
(0.616399 -0.119678 0)
(0.640782 -0.117729 0)
(0.665008 -0.115009 0)
(0.686781 -0.11175 0)
(0.709058 -0.107951 0)
(0.728056 -0.103792 0)
(0.748449 -0.0993401 0)
(0.764636 -0.0947004 0)
(0.783339 -0.0900127 0)
(0.796781 -0.085281 0)
(0.814091 -0.0807287 0)
(0.824914 -0.0762385 0)
(0.841204 -0.0721356 0)
(0.849566 -0.0681601 0)
(0.865266 -0.0647654 0)
(0.87133 -0.061525 0)
(0.886908 -0.0590537 0)
(0.890822 -0.05673 0)
(0.906776 -0.0553707 0)
(0.908646 -0.0541249 0)
(0.925494 -0.0540623 0)
(-0.00367475 0.00680055 0)
(-0.0134948 0.0172395 0)
(-0.0245521 0.0219699 0)
(-0.0336796 0.0246447 0)
(-0.0419579 0.0262498 0)
(-0.0495829 0.0271061 0)
(-0.0565132 0.0273918 0)
(-0.0626228 0.0272927 0)
(-0.0678197 0.0269461 0)
(-0.0721063 0.0264239 0)
(-0.0755396 0.0257727 0)
(-0.0781799 0.0250257 0)
(-0.080088 0.0242111 0)
(-0.0813221 0.0233517 0)
(-0.0819363 0.0224652 0)
(-0.0819799 0.0215654 0)
(-0.0814974 0.0206634 0)
(-0.080527 0.0197659 0)
(-0.0790999 0.0188771 0)
(-0.0772438 0.0180025 0)
(-0.0749801 0.0171458 0)
(-0.0723257 0.0163097 0)
(-0.0692921 0.0154946 0)
(-0.0658865 0.0147001 0)
(-0.0621088 0.0139231 0)
(-0.0579521 0.0131595 0)
(-0.0534031 0.012406 0)
(-0.0484563 0.0116658 0)
(-0.0430855 0.0109287 0)
(-0.0372685 0.0101843 0)
(-0.0309774 0.00942177 0)
(-0.0241813 0.00862818 0)
(-0.0168439 0.00778805 0)
(-0.00892069 0.00688242 0)
(-0.000335017 0.00588298 0)
(0.0088999 0.00476129 0)
(0.0188586 0.00350772 0)
(0.0295954 0.00211175 0)
(0.0411735 0.000548757 0)
(0.053647 -0.00121103 0)
(0.0670896 -0.00320127 0)
(0.0815469 -0.00545548 0)
(0.0971016 -0.00802556 0)
(0.113742 -0.0109718 0)
(0.13165 -0.0143513 0)
(0.150711 -0.0182221 0)
(0.171125 -0.0226551 0)
(0.19261 -0.0276766 0)
(0.21549 -0.0333212 0)
(0.239257 -0.0395803 0)
(0.264428 -0.0464976 0)
(0.290209 -0.0539684 0)
(0.317327 -0.0619838 0)
(0.344709 -0.0703439 0)
(0.373331 -0.0790277 0)
(0.401844 -0.087748 0)
(0.431446 -0.0964914 0)
(0.460541 -0.104924 0)
(0.490529 -0.113059 0)
(0.519599 -0.120535 0)
(0.549306 -0.127415 0)
(0.577693 -0.133334 0)
(0.606419 -0.138422 0)
(0.63348 -0.142346 0)
(0.660569 -0.145314 0)
(0.685759 -0.147032 0)
(0.710677 -0.147782 0)
(0.733624 -0.147319 0)
(0.75602 -0.14598 0)
(0.776554 -0.143564 0)
(0.796262 -0.140444 0)
(0.814396 -0.136458 0)
(0.831404 -0.131989 0)
(0.847296 -0.126904 0)
(0.861707 -0.121571 0)
(0.875621 -0.115882 0)
(0.887613 -0.110165 0)
(0.899876 -0.104335 0)
(0.909663 -0.0986617 0)
(0.920636 -0.0930897 0)
(0.928434 -0.0878173 0)
(0.938485 -0.082831 0)
(0.944494 -0.0782434 0)
(0.953991 -0.0741027 0)
(0.958374 -0.0704214 0)
(0.96768 -0.067333 0)
(0.970557 -0.0647331 0)
(0.980025 -0.0628699 0)
(0.981449 -0.0614994 0)
(0.991424 -0.0610217 0)
(-0.00179913 0.0287879 0)
(-0.00958911 0.0405304 0)
(-0.0240997 0.040472 0)
(-0.0355131 0.0380548 0)
(-0.0445572 0.036207 0)
(-0.0509863 0.0347179 0)
(-0.0551026 0.0332391 0)
(-0.0573054 0.0316963 0)
(-0.0579567 0.0301014 0)
(-0.0573351 0.0284792 0)
(-0.0556303 0.0268523 0)
(-0.0529904 0.0252345 0)
(-0.0495417 0.0236432 0)
(-0.0453909 0.0220904 0)
(-0.0406281 0.020582 0)
(-0.0353293 0.0191214 0)
(-0.0295605 0.0177099 0)
(-0.0233741 0.016343 0)
(-0.0168053 0.015013 0)
(-0.00989243 0.0137232 0)
(-0.0026598 0.0124731 0)
(0.00487416 0.0112603 0)
(0.0127005 0.0100808 0)
(0.0208111 0.00893134 0)
(0.0292141 0.00780167 0)
(0.0379227 0.00667961 0)
(0.0469777 0.00554784 0)
(0.0563518 0.00438797 0)
(0.0660955 0.00319747 0)
(0.0762399 0.00197089 0)
(0.0868193 0.00069447 0)
(0.0978714 -0.00065061 0)
(0.109442 -0.00208402 0)
(0.121561 -0.00362746 0)
(0.134298 -0.00529953 0)
(0.147654 -0.00712929 0)
(0.161712 -0.00914456 0)
(0.176522 -0.0113684 0)
(0.192151 -0.0138239 0)
(0.208613 -0.0165412 0)
(0.226006 -0.0195527 0)
(0.244302 -0.0228939 0)
(0.263648 -0.0265978 0)
(0.283935 -0.0306962 0)
(0.305374 -0.0352432 0)
(0.327734 -0.0402779 0)
(0.351298 -0.0458516 0)
(0.375659 -0.0519719 0)
(0.401201 -0.0586729 0)
(0.427312 -0.0659139 0)
(0.454509 -0.0737058 0)
(0.481951 -0.0819332 0)
(0.510314 -0.0905657 0)
(0.538508 -0.0994042 0)
(0.5674 -0.108398 0)
(0.59565 -0.117284 0)
(0.624348 -0.126015 0)
(0.6519 -0.134285 0)
(0.67965 -0.142076 0)
(0.705758 -0.149062 0)
(0.731835 -0.155281 0)
(0.755827 -0.160411 0)
(0.779616 -0.164567 0)
(0.800973 -0.167448 0)
(0.822039 -0.169263 0)
(0.840467 -0.169744 0)
(0.858612 -0.169195 0)
(0.874074 -0.167379 0)
(0.88934 -0.164681 0)
(0.90202 -0.160888 0)
(0.914626 -0.156442 0)
(0.924853 -0.151137 0)
(0.935116 -0.145451 0)
(0.943294 -0.139168 0)
(0.951569 -0.132777 0)
(0.958115 -0.126042 0)
(0.964743 -0.119446 0)
(0.970048 -0.112729 0)
(0.975326 -0.106356 0)
(0.979735 -0.100046 0)
(0.983901 -0.0942411 0)
(0.987706 -0.0886464 0)
(0.990937 -0.0836764 0)
(0.994385 -0.0790327 0)
(0.996799 -0.0751003 0)
(1.0001 -0.0715888 0)
(1.00175 -0.0688497 0)
(1.00507 -0.0666154 0)
(1.00595 -0.0651949 0)
(1.00945 -0.0643602 0)
(-0.0196106 0.00825677 0)
(-0.0378701 0.0319018 0)
(-0.041095 0.0392265 0)
(-0.0432182 0.0400148 0)
(-0.0421283 0.0383526 0)
(-0.0386946 0.0355944 0)
(-0.0333742 0.0325281 0)
(-0.0265103 0.0294845 0)
(-0.0183556 0.0265637 0)
(-0.00920029 0.0238327 0)
(0.000775443 0.0212697 0)
(0.0114068 0.0188497 0)
(0.0225378 0.0165702 0)
(0.0340562 0.0144252 0)
(0.0458748 0.0124056 0)
(0.0579245 0.0105022 0)
(0.0701381 0.00870861 0)
(0.082472 0.00702278 0)
(0.0949394 0.005434 0)
(0.107493 0.00391732 0)
(0.120123 0.00244997 0)
(0.132822 0.00101735 0)
(0.145606 -0.000391851 0)
(0.158461 -0.00178825 0)
(0.17142 -0.00318127 0)
(0.184501 -0.00458286 0)
(0.19775 -0.00600688 0)
(0.211167 -0.00747544 0)
(0.224813 -0.00900752 0)
(0.238734 -0.0106198 0)
(0.252966 -0.0123281 0)
(0.267554 -0.0141532 0)
(0.282542 -0.016115 0)
(0.297975 -0.0182369 0)
(0.313902 -0.0205401 0)
(0.330361 -0.0230423 0)
(0.347407 -0.0257626 0)
(0.365068 -0.028733 0)
(0.383408 -0.0319764 0)
(0.402425 -0.0355242 0)
(0.422199 -0.0393983 0)
(0.442684 -0.0436312 0)
(0.463983 -0.0482461 0)
(0.485986 -0.0532749 0)
(0.508821 -0.0587422 0)
(0.532282 -0.0646714 0)
(0.55653 -0.0710777 0)
(0.581233 -0.0779583 0)
(0.606592 -0.0853051 0)
(0.632126 -0.0930716 0)
(0.658107 -0.101218 0)
(0.683881 -0.109643 0)
(0.709834 -0.118272 0)
(0.735105 -0.126945 0)
(0.760247 -0.135568 0)
(0.784185 -0.143927 0)
(0.807705 -0.15193 0)
(0.829505 -0.159328 0)
(0.850672 -0.166063 0)
(0.86966 -0.171875 0)
(0.88792 -0.176771 0)
(0.90365 -0.180499 0)
(0.91871 -0.183156 0)
(0.931023 -0.184509 0)
(0.942875 -0.184765 0)
(0.9519 -0.183706 0)
(0.960804 -0.181645 0)
(0.966923 -0.178375 0)
(0.973339 -0.174305 0)
(0.977086 -0.169224 0)
(0.98156 -0.163615 0)
(0.983506 -0.157241 0)
(0.986573 -0.150636 0)
(0.987244 -0.143515 0)
(0.989359 -0.136443 0)
(0.989184 -0.12908 0)
(0.990698 -0.12201 0)
(0.989996 -0.114835 0)
(0.99115 -0.108154 0)
(0.990138 -0.101512 0)
(0.991082 -0.0955238 0)
(0.989896 -0.0896831 0)
(0.990711 -0.08462 0)
(0.989426 -0.0797817 0)
(0.990138 -0.0758177 0)
(0.988786 -0.0721327 0)
(0.989371 -0.0693986 0)
(0.98795 -0.0669831 0)
(0.988338 -0.0655808 0)
(0.986815 -0.064525 0)
(-0.0189851 0.107929 0)
(-0.0182031 0.0727534 0)
(-0.0113728 0.0580418 0)
(0.00109715 0.0461477 0)
(0.0174106 0.036336 0)
(0.0358761 0.0287993 0)
(0.0555496 0.0228842 0)
(0.0756853 0.018034 0)
(0.0961101 0.0138672 0)
(0.116283 0.0102016 0)
(0.136287 0.00696762 0)
(0.156074 0.00411807 0)
(0.175518 0.00157955 0)
(0.1946 -0.000715191 0)
(0.213316 -0.00281076 0)
(0.231663 -0.00473728 0)
(0.249645 -0.00651844 0)
(0.267262 -0.00817619 0)
(0.284553 -0.00973102 0)
(0.301507 -0.011207 0)
(0.31815 -0.0126312 0)
(0.334509 -0.0140287 0)
(0.350632 -0.0154215 0)
(0.366538 -0.0168289 0)
(0.382278 -0.018267 0)
(0.397902 -0.0197499 0)
(0.41345 -0.021294 0)
(0.428971 -0.0229134 0)
(0.444508 -0.0246274 0)
(0.46012 -0.0264604 0)
(0.475847 -0.0284315 0)
(0.491746 -0.0305635 0)
(0.507853 -0.0328732 0)
(0.52422 -0.0353832 0)
(0.540876 -0.0381091 0)
(0.557867 -0.0410738 0)
(0.575214 -0.0442918 0)
(0.592951 -0.0477889 0)
(0.611093 -0.0515786 0)
(0.629653 -0.0556862 0)
(0.648636 -0.0601215 0)
(0.668027 -0.0649085 0)
(0.687819 -0.0700528 0)
(0.707958 -0.0755757 0)
(0.728429 -0.081477 0)
(0.749111 -0.0877709 0)
(0.76998 -0.0944424 0)
(0.790841 -0.101484 0)
(0.811668 -0.108851 0)
(0.832172 -0.116502 0)
(0.852355 -0.124359 0)
(0.871822 -0.132337 0)
(0.890648 -0.140325 0)
(0.908313 -0.148199 0)
(0.925032 -0.155826 0)
(0.940161 -0.163048 0)
(0.95413 -0.169734 0)
(0.96614 -0.175712 0)
(0.976926 -0.180885 0)
(0.985491 -0.185089 0)
(0.99296 -0.188293 0)
(0.998078 -0.19035 0)
(1.00243 -0.191323 0)
(1.00441 -0.191081 0)
(1.00613 -0.189798 0)
(1.00554 -0.187346 0)
(1.00529 -0.184 0)
(1.0028 -0.179616 0)
(1.00128 -0.174577 0)
(0.997558 -0.168696 0)
(0.995411 -0.162444 0)
(0.990996 -0.155565 0)
(0.988698 -0.148605 0)
(0.983988 -0.141216 0)
(0.981855 -0.134013 0)
(0.977081 -0.126548 0)
(0.975283 -0.1195 0)
(0.970551 -0.112319 0)
(0.969152 -0.105751 0)
(0.964477 -0.099144 0)
(0.963478 -0.0933116 0)
(0.958824 -0.0875068 0)
(0.958194 -0.082611 0)
(0.953491 -0.0777832 0)
(0.953177 -0.0739754 0)
(0.948334 -0.0702556 0)
(0.94826 -0.0676473 0)
(0.943157 -0.0651317 0)
(0.943217 -0.0638027 0)
(0.93771 -0.0625612 0)
(0.0698642 0.00704414 0)
(0.0897933 0.00652438 0)
(0.15343 0.00606217 0)
(0.198301 0.00288306 0)
(0.237082 -0.00140882 0)
(0.272333 -0.00552 0)
(0.30488 -0.00906552 0)
(0.334562 -0.0120634 0)
(0.362167 -0.0146257 0)
(0.387934 -0.0168306 0)
(0.412237 -0.0187585 0)
(0.43529 -0.0204628 0)
(0.457176 -0.0219822 0)
(0.478009 -0.0233495 0)
(0.497892 -0.0245901 0)
(0.516912 -0.025724 0)
(0.53514 -0.0267707 0)
(0.552636 -0.0277518 0)
(0.569463 -0.0286928 0)
(0.585671 -0.0296139 0)
(0.601316 -0.0305345 0)
(0.616452 -0.0314756 0)
(0.631137 -0.0324579 0)
(0.645425 -0.0335005 0)
(0.659373 -0.0346221 0)
(0.67304 -0.0358414 0)
(0.686471 -0.0371747 0)
(0.699722 -0.0386386 0)
(0.712833 -0.0402489 0)
(0.725857 -0.0420241 0)
(0.73883 -0.0439798 0)
(0.751802 -0.0461339 0)
(0.764798 -0.0485012 0)
(0.777859 -0.0511003 0)
(0.790994 -0.0539441 0)
(0.804237 -0.05705 0)
(0.817582 -0.0604279 0)
(0.83105 -0.0640938 0)
(0.844619 -0.0680547 0)
(0.858294 -0.072325 0)
(0.872031 -0.0769071 0)
(0.885816 -0.0818118 0)
(0.899581 -0.0870351 0)
(0.913285 -0.0925826 0)
(0.926834 -0.0984404 0)
(0.940154 -0.104605 0)
(0.953127 -0.111046 0)
(0.965646 -0.117739 0)
(0.977578 -0.124627 0)
(0.988782 -0.131662 0)
(0.999129 -0.138751 0)
(1.00845 -0.145818 0)
(1.01665 -0.152742 0)
(1.02355 -0.15942 0)
(1.02915 -0.165711 0)
(1.03324 -0.171505 0)
(1.03598 -0.176663 0)
(1.03711 -0.181088 0)
(1.03701 -0.184673 0)
(1.03533 -0.187343 0)
(1.03273 -0.189044 0)
(1.02867 -0.189734 0)
(1.02417 -0.189427 0)
(1.01836 -0.188101 0)
(1.01269 -0.18585 0)
(1.0058 -0.182654 0)
(0.999672 -0.178694 0)
(0.992269 -0.173922 0)
(0.98622 -0.16861 0)
(0.978686 -0.162646 0)
(0.97307 -0.156393 0)
(0.965598 -0.149643 0)
(0.960592 -0.142857 0)
(0.953223 -0.135707 0)
(0.948875 -0.128765 0)
(0.941551 -0.121563 0)
(0.937848 -0.114799 0)
(0.930475 -0.107849 0)
(0.927385 -0.101552 0)
(0.919853 -0.0951094 0)
(0.917355 -0.0895194 0)
(0.909555 -0.0837956 0)
(0.90764 -0.0791088 0)
(0.899457 -0.074271 0)
(0.898118 -0.0706396 0)
(0.889413 -0.0668115 0)
(0.888625 -0.0643421 0)
(0.879219 -0.0616043 0)
(0.878921 -0.0603591 0)
(0.868593 -0.0587535 0)
(0.773592 -0.00916938 0)
(0.77513 -0.0205791 0)
(0.775949 -0.0267837 0)
(0.777609 -0.0304711 0)
(0.781235 -0.0331133 0)
(0.786601 -0.0353084 0)
(0.793427 -0.037184 0)
(0.801082 -0.0387066 0)
(0.809341 -0.0398943 0)
(0.817997 -0.0407841 0)
(0.826866 -0.041452 0)
(0.83582 -0.0419708 0)
(0.844761 -0.0423835 0)
(0.853616 -0.0427157 0)
(0.86233 -0.0429855 0)
(0.870865 -0.0432088 0)
(0.87919 -0.0434023 0)
(0.887285 -0.0435841 0)
(0.895139 -0.0437743 0)
(0.902748 -0.0439927 0)
(0.910119 -0.0442594 0)
(0.917261 -0.0445946 0)
(0.924192 -0.0450186 0)
(0.930931 -0.0455513 0)
(0.937501 -0.0462128 0)
(0.943925 -0.0470226 0)
(0.950225 -0.0479976 0)
(0.956423 -0.0491532 0)
(0.962539 -0.050503 0)
(0.968592 -0.0520604 0)
(0.974598 -0.0538373 0)
(0.980573 -0.0558458 0)
(0.986522 -0.0580968 0)
(0.992452 -0.0606012 0)
(0.998359 -0.0633679 0)
(1.00424 -0.0664056 0)
(1.01009 -0.0697203 0)
(1.01589 -0.0733181 0)
(1.0216 -0.0772019 0)
(1.02722 -0.0813748 0)
(1.03268 -0.0858351 0)
(1.03796 -0.0905813 0)
(1.043 -0.0956049 0)
(1.04773 -0.100897 0)
(1.05208 -0.106437 0)
(1.056 -0.112202 0)
(1.05938 -0.118158 0)
(1.06215 -0.124263 0)
(1.06423 -0.130462 0)
(1.06554 -0.136697 0)
(1.06599 -0.142886 0)
(1.06555 -0.148953 0)
(1.06414 -0.154797 0)
(1.06176 -0.16033 0)
(1.05839 -0.165441 0)
(1.05407 -0.170049 0)
(1.04886 -0.174045 0)
(1.04282 -0.177369 0)
(1.03608 -0.179929 0)
(1.0287 -0.181694 0)
(1.02092 -0.182603 0)
(1.01268 -0.182662 0)
(1.00438 -0.181848 0)
(0.995729 -0.180198 0)
(0.98734 -0.177728 0)
(0.978572 -0.174493 0)
(0.97035 -0.170557 0)
(0.961536 -0.165966 0)
(0.953558 -0.160829 0)
(0.944619 -0.155158 0)
(0.936871 -0.149128 0)
(0.927664 -0.142688 0)
(0.920121 -0.136096 0)
(0.910504 -0.129206 0)
(0.903186 -0.122391 0)
(0.893057 -0.115374 0)
(0.886057 -0.108671 0)
(0.875367 -0.101833 0)
(0.868844 -0.0955567 0)
(0.857557 -0.0891669 0)
(0.851709 -0.083583 0)
(0.839766 -0.0778543 0)
(0.834802 -0.0731765 0)
(0.822079 -0.0682664 0)
(0.818198 -0.0646568 0)
(0.804479 -0.0606667 0)
(0.801853 -0.0582314 0)
(0.786807 -0.0552047 0)
(0.785572 -0.0539918 0)
(0.768751 -0.0519162 0)
(1.05713 0.00832008 0)
(1.06022 -5.55872e-05 0)
(1.06093 -0.00720025 0)
(1.06018 -0.012844 0)
(1.05929 -0.0174625 0)
(1.05898 -0.0214635 0)
(1.05938 -0.0250225 0)
(1.06034 -0.02815 0)
(1.06164 -0.0308421 0)
(1.06313 -0.0331183 0)
(1.06471 -0.0350222 0)
(1.06635 -0.0366078 0)
(1.06802 -0.0379271 0)
(1.06968 -0.0390254 0)
(1.07133 -0.0399418 0)
(1.07294 -0.0407113 0)
(1.07449 -0.0413665 0)
(1.07597 -0.0419389 0)
(1.07736 -0.0424595 0)
(1.07866 -0.0429589 0)
(1.07986 -0.0434665 0)
(1.08097 -0.0440109 0)
(1.08199 -0.0446196 0)
(1.08292 -0.0453186 0)
(1.08377 -0.0461325 0)
(1.08454 -0.0470843 0)
(1.08525 -0.0481941 0)
(1.0859 -0.0494796 0)
(1.08649 -0.0509561 0)
(1.08702 -0.0526375 0)
(1.0875 -0.0545355 0)
(1.08792 -0.0566609 0)
(1.08828 -0.0590221 0)
(1.08858 -0.0616259 0)
(1.0888 -0.0644778 0)
(1.08893 -0.0675821 0)
(1.08896 -0.0709414 0)
(1.08886 -0.0745572 0)
(1.08863 -0.078429 0)
(1.08822 -0.0825543 0)
(1.08761 -0.0869283 0)
(1.08677 -0.0915428 0)
(1.08568 -0.0963864 0)
(1.08428 -0.101443 0)
(1.08255 -0.106689 0)
(1.08044 -0.112099 0)
(1.07793 -0.117636 0)
(1.07497 -0.123258 0)
(1.07154 -0.128915 0)
(1.06762 -0.134549 0)
(1.06317 -0.140094 0)
(1.05821 -0.145476 0)
(1.05272 -0.150619 0)
(1.04672 -0.155444 0)
(1.04023 -0.159872 0)
(1.0333 -0.163829 0)
(1.02593 -0.167239 0)
(1.0182 -0.170043 0)
(1.01012 -0.17217 0)
(1.00173 -0.173581 0)
(0.993044 -0.174219 0)
(0.984073 -0.174075 0)
(0.974806 -0.173115 0)
(0.965199 -0.171369 0)
(0.955273 -0.168829 0)
(0.944877 -0.165562 0)
(0.934153 -0.161575 0)
(0.922782 -0.156951 0)
(0.911153 -0.151706 0)
(0.898676 -0.145941 0)
(0.886156 -0.139706 0)
(0.872571 -0.133109 0)
(0.859346 -0.12624 0)
(0.844781 -0.119176 0)
(0.831186 -0.112056 0)
(0.815848 -0.104896 0)
(0.802321 -0.0979114 0)
(0.786437 -0.0910118 0)
(0.773466 -0.0845221 0)
(0.7572 -0.0781766 0)
(0.745275 -0.0724631 0)
(0.728646 -0.0668668 0)
(0.718218 -0.0621253 0)
(0.70104 -0.0573821 0)
(0.692542 -0.0537431 0)
(0.67438 -0.0498844 0)
(0.668268 -0.0474334 0)
(0.648399 -0.0444323 0)
(0.645213 -0.0432139 0)
(0.622589 -0.0409844 0)
(1.08186 -0.00321711 0)
(1.08784 -0.0107874 0)
(1.09214 -0.0181137 0)
(1.09481 -0.0242008 0)
(1.09634 -0.0289057 0)
(1.09732 -0.0325531 0)
(1.09817 -0.0355015 0)
(1.09903 -0.0379775 0)
(1.0999 -0.0400745 0)
(1.10073 -0.0418197 0)
(1.10148 -0.0432267 0)
(1.10213 -0.0443213 0)
(1.10268 -0.045143 0)
(1.10315 -0.0457382 0)
(1.10355 -0.0461534 0)
(1.10386 -0.0464318 0)
(1.1041 -0.0466126 0)
(1.10425 -0.0467317 0)
(1.10431 -0.0468228 0)
(1.10428 -0.0469179 0)
(1.10415 -0.0470476 0)
(1.10392 -0.0472409 0)
(1.1036 -0.0475247 0)
(1.10317 -0.0479243 0)
(1.10266 -0.0484627 0)
(1.10206 -0.0491604 0)
(1.10136 -0.0500356 0)
(1.10058 -0.051104 0)
(1.09971 -0.0523787 0)
(1.09875 -0.0538709 0)
(1.0977 -0.0555893 0)
(1.09656 -0.0575411 0)
(1.09533 -0.0597315 0)
(1.09399 -0.0621642 0)
(1.09254 -0.0648417 0)
(1.09097 -0.0677654 0)
(1.08928 -0.0709351 0)