/*--------------------------------*- C++ -*----------------------------------*\
| =========                 |                                                 |
| \\      /  F ield         | OpenFOAM: The Open Source CFD Toolbox           |
|  \\    /   O peration     | Version:  2306                                  |
|   \\  /    A nd           | Website:  www.openfoam.com                      |
|    \\/     M anipulation  |                                                 |
\*---------------------------------------------------------------------------*/
FoamFile
{
    version     2.0;
    format      ascii;
    arch        "LSB;label=32;scalar=64";
    class       volScalarField;
    location    "4.6";
    object      p;
}
// * * * * * * * * * * * * * * * * * * * * * * * * * * * * * * * * * * * * * //

dimensions      [0 2 -2 0 0 0 0];

internalField   nonuniform List<scalar> 
1900
(
0.0559505
0.0317293
0.0113373
-0.0040033
-0.0150233
-0.0255787
-0.0360202
-0.0481847
-0.0607392
-0.0747932
0.0266896
0.0184912
0.00717541
-0.00437726
-0.0154018
-0.0255898
-0.0360229
-0.0465362
-0.0580327
-0.0690859
0.017596
0.0131055
0.00559017
-0.00377764
-0.0138608
-0.0238391
-0.0336174
-0.0431687
-0.0525943
-0.0616779
0.011894
0.00882083
0.00317129
-0.00447664
-0.0133276
-0.0225671
-0.0317571
-0.0406699
-0.0492615
-0.05742
0.00966886
0.00713355
0.00239503
-0.0042528
-0.0122312
-0.0208341
-0.0295082
-0.0379308
-0.0459526
-0.0534847
0.010302
0.00782127
0.00321052
-0.00325454
-0.010993
-0.0192966
-0.0276065
-0.0356055
-0.0431695
-0.0502698
0.0137566
0.0108105
0.00552926
-0.00155399
-0.00961439
-0.0179015
-0.0259496
-0.0335814
-0.0407888
-0.0476068
0.0204547
0.0161592
0.00926129
0.000792194
-0.00802805
-0.0164528
-0.0242864
-0.0316226
-0.0386108
-0.0453133
0.0305948
0.0224956
0.0120595
0.00159839
-0.00770881
-0.0158207
-0.0231898
-0.0302387
-0.0371312
-0.043827
0.0594448
0.0367723
0.0170653
0.00300247
-0.00665502
-0.0143503
-0.0215796
-0.0287979
-0.0359553
-0.0428464
-0.0979892
-0.0980227
-0.0980675
-0.0981217
-0.0981819
-0.0982481
-0.0983195
-0.0983952
-0.0984739
-0.0985539
-0.0986336
-0.0987114
-0.0987853
-0.0988538
-0.0989152
-0.0989677
-0.0990098
-0.0990401
-0.0990573
-0.09906
-0.0990474
-0.0990184
-0.0989723
-0.0989085
-0.0988266
-0.098726
-0.0986067
-0.0984683
-0.0983107
-0.0981337
-0.097937
-0.0977203
-0.0974834
-0.0972258
-0.096947
-0.0966462
-0.0963218
-0.0959708
-0.0955886
-0.0951673
-0.0946951
-0.0941549
-0.093524
-0.0927737
-0.0918702
-0.0907755
-0.0894483
-0.0878436
-0.0859109
-0.0835935
-0.0808277
-0.0775449
-0.073676
-0.0691612
-0.0639572
-0.0580442
-0.051437
-0.0441922
-0.0363832
-0.0281169
-0.0195294
-0.0107817
-0.00203753
0.00653014
0.0147539
0.022481
0.0295718
0.0359152
0.0414216
0.0460414
0.0497375
0.0525139
0.0543791
0.055381
0.0555605
0.0549943
0.0537386
0.0518826
0.0494817
0.0466253
0.0433572
0.03976
0.0358562
0.0317195
0.0273445
0.0228017
0.0180464
0.0131615
0.00803223
0.00281399
-0.0979847
-0.0980163
-0.0980434
-0.0980849
-0.0981361
-0.0981956
-0.0982617
-0.098333
-0.0984077
-0.0984844
-0.0985612
-0.0986366
-0.0987086
-0.0987756
-0.0988357
-0.0988874
-0.0989288
-0.0989587
-0.0989755
-0.0989781
-0.0989652
-0.0989359
-0.0988894
-0.098825
-0.098742
-0.0986401
-0.0985188
-0.0983779
-0.098217
-0.0980359
-0.0978342
-0.0976114
-0.097367
-0.0971001
-0.0968097
-0.0964945
-0.0961525
-0.0957807
-0.0953745
-0.094927
-0.0944284
-0.0938654
-0.0932204
-0.0924707
-0.0915885
-0.0905407
-0.0892882
-0.087786
-0.0859802
-0.0838062
-0.0811886
-0.0780437
-0.0742875
-0.0698626
-0.0647523
-0.0589413
-0.0524282
-0.0452444
-0.0374694
-0.0292168
-0.0206234
-0.0118568
-0.00308574
0.00551627
0.0137693
0.0215257
0.0286494
0.035014
0.0405355
0.0451721
0.0488816
0.051672
0.0535482
0.0545639
0.0547555
0.0542067
0.0529672
0.0511357
0.0487589
0.0459379
0.0427021
0.0391497
0.0352852
0.0312029
0.0268744
0.0223914
0.0176854
0.0128615
0.00781563
0.00269761
-0.0978672
-0.0979484
-0.097994
-0.0980474
-0.0981036
-0.0981651
-0.0982329
-0.098306
-0.098383
-0.0984624
-0.0985423
-0.0986209
-0.0986964
-0.0987669
-0.0988305
-0.0988856
-0.0989304
-0.0989633
-0.0989829
-0.0989878
-0.0989768
-0.0989489
-0.0989032
-0.0988391
-0.098756
-0.0986535
-0.0985312
-0.098389
-0.0982269
-0.0980446
-0.097842
-0.0976189
-0.0973744
-0.0971078
-0.0968177
-0.0965027
-0.0961605
-0.0957879
-0.0953801
-0.0949312
-0.0944335
-0.0938775
-0.0932511
-0.0925385
-0.0917186
-0.0907614
-0.0896265
-0.088264
-0.0866126
-0.0845953
-0.0821255
-0.0791269
-0.0755189
-0.0712222
-0.0661723
-0.060368
-0.0538329
-0.0466244
-0.0388247
-0.0305506
-0.0219232
-0.0131455
-0.00438047
0.00420948
0.0124461
0.0201855
0.0272792
0.0336215
0.0391148
0.0437213
0.0474
0.0501639
0.0520175
0.0530197
0.0532054
0.0526636
0.0514411
0.0496412
0.0473064
0.0445419
0.0413742
0.0379038
0.034134
0.0301585
0.0259522
0.0216029
0.0170561
0.0124017
0.00756196
0.00263942
-0.0979491
-0.0980229
-0.0980272
-0.0980531
-0.0980988
-0.0981609
-0.0982342
-0.0983149
-0.0984003
-0.0984883
-0.0985767
-0.0986633
-0.0987462
-0.0988234
-0.0988929
-0.0989531
-0.0990021
-0.0990384
-0.0990605
-0.0990671
-0.099057
-0.0990292
-0.0989829
-0.0989174
-0.0988322
-0.0987268
-0.0986012
-0.0984553
-0.0982892
-0.098103
-0.0978969
-0.0976707
-0.0974239
-0.0971552
-0.096863
-0.096546
-0.0962021
-0.0958287
-0.0954224
-0.0949783
-0.0944903
-0.0939508
-0.0933527
-0.0926848
-0.0919284
-0.091054
-0.0900148
-0.0887559
-0.0872192
-0.0853191
-0.0829548
-0.0800307
-0.0764648
-0.0722179
-0.0672016
-0.0614344
-0.0549343
-0.047762
-0.0400061
-0.0317873
-0.0232467
-0.0145597
-0.00590464
0.00255391
0.0106441
0.0182225
0.0251487
0.0313257
0.0366614
0.0411185
0.0446633
0.0473125
0.049076
0.0500143
0.0501666
0.0496209
0.0484275
0.0466856
0.0444412
0.0417931
0.0387726
0.0354713
0.0318998
0.02814
0.0241796
0.0200921
0.0158422
0.0114984
0.00700347
0.00242663
-0.0976231
-0.0978285
-0.0979193
-0.0980234
-0.0981222
-0.0982155
-0.0983081
-0.0984034
-0.0985009
-0.0985991
-0.0986962
-0.0987901
-0.0988789
-0.0989608
-0.0990338
-0.0990962
-0.0991466
-0.0991832
-0.0992045
-0.0992093
-0.0991965
-0.099165
-0.0991143
-0.0990438
-0.0989531
-0.0988419
-0.0987103
-0.0985586
-0.0983872
-0.0981965
-0.0979869
-0.0977585
-0.0975108
-0.0972421
-0.0969498
-0.0966332
-0.096291
-0.0959205
-0.0955188
-0.0950821
-0.0946046
-0.0940795
-0.0935035
-0.0928667
-0.0921472
-0.0913208
-0.090326
-0.0891066
-0.0875847
-0.0856913
-0.0833292
-0.0804096
-0.0768509
-0.0725976
-0.0676024
-0.0618693
-0.0554276
-0.0483439
-0.040712
-0.0326571
-0.0243246
-0.015879
-0.00749531
0.000661538
0.00843043
0.015674
0.0222653
0.0281143
0.033143
0.0373177
0.040616
0.0430576
0.0446624
0.0454898
0.0455861
0.0450342
0.0438896
0.0422427
0.0401449
0.037683
0.0348952
0.0318589
0.0285941
0.025167
0.0215787
0.0178852
0.014069
0.0101795
0.00618308
0.00213061
-0.0984547
-0.0984774
-0.0983763
-0.0983315
-0.0983421
-0.0984
-0.098488
-0.0985889
-0.098692
-0.0987939
-0.0988924
-0.0989858
-0.0990724
-0.0991506
-0.0992188
-0.0992757
-0.0993198
-0.0993496
-0.0993639
-0.0993612
-0.0993407
-0.0993014
-0.099243
-0.0991652
-0.0990675
-0.0989498
-0.098812
-0.0986548
-0.0984787
-0.0982844
-0.0980721
-0.0978421
-0.0975937
-0.0973247
-0.0970307
-0.096717
-0.0963798
-0.0960149
-0.0956195
-0.09519
-0.0947214
-0.0942046
-0.0936267
-0.0929784
-0.0922401
-0.0913788
-0.0903424
-0.0890715
-0.0874926
-0.0855297
-0.0830942
-0.0801052
-0.0764897
-0.0722008
-0.0672089
-0.0615214
-0.0551758
-0.0482454
-0.0408298
-0.0330567
-0.0250706
-0.0170299
-0.00909694
-0.00142842
0.00583031
0.0125531
0.0186315
0.0239857
0.0285568
0.0323185
0.0352629
0.0374133
0.0388012
0.0394836
0.0395145
0.0389683
0.0379056
0.0364045
0.0345202
0.032325
0.0298618
0.0271921
0.0243431
0.0213643
0.0182671
0.0150908
0.0118322
0.00852432
0.00515362
0.00175345
-0.0971286
-0.097775
-0.0979779
-0.0982345
-0.0984499
-0.098613
-0.0987353
-0.0988363
-0.0989292
-0.0990176
-0.0991016
-0.0991801
-0.0992517
-0.0993152
-0.0993694
-0.0994128
-0.0994445
-0.0994631
-0.099467
-0.0994549
-0.0994257
-0.0993785
-0.0993129
-0.0992285
-0.0991249
-0.0990016
-0.0988586
-0.0986979
-0.0985196
-0.0983237
-0.0981106
-0.0978804
-0.0976325
-0.0973653
-0.0970732
-0.0967497
-0.0964002
-0.0960222
-0.0956098
-0.0951575
-0.094658
-0.0941026
-0.093479
-0.0927718
-0.0919558
-0.0909965
-0.0898433
-0.0884374
-0.0867089
-0.0845863
-0.0819945
-0.0788659
-0.0751431
-0.0707911
-0.0657963
-0.0601766
-0.0539787
-0.0472825
-0.0401913
-0.0328325
-0.0253452
-0.0178792
-0.0105805
-0.00358882
0.0029731
0.00899782
0.0143997
0.0191152
0.0231061
0.0263577
0.0288772
0.0306915
0.0318413
0.0323799
0.032365
0.0318613
0.03093
0.0296354
0.0280331
0.0261797
0.0241194
0.0218979
0.0195462
0.0170982
0.0145725
0.0119931
0.00936804
0.00671502
0.00403574
0.00134871
-0.10184
-0.100461
-0.0998327
-0.0993994
-0.0991728
-0.0990835
-0.0990716
-0.0990962
-0.0991352
-0.099181
-0.0992305
-0.0992802
-0.0993281
-0.0993723
-0.0994109
-0.0994417
-0.0994634
-0.0994732
-0.0994684
-0.0994486
-0.0994131
-0.0993613
-0.0992925
-0.0992066
-0.0991022
-0.0989782
-0.0988325
-0.0986647
-0.098478
-0.0982725
-0.0980474
-0.0978014
-0.0975328
-0.0972389
-0.0969159
-0.0965607
-0.0961714
-0.095744
-0.0952721
-0.0947484
-0.0941635
-0.0935063
-0.0927616
-0.0919098
-0.0909238
-0.0897687
-0.0883981
-0.0867582
-0.0847883
-0.0824271
-0.079615
-0.0763021
-0.0724505
-0.0680418
-0.0630785
-0.0575907
-0.0516332
-0.0452888
-0.0386589
-0.0318653
-0.0250362
-0.0183062
-0.0118015
-0.00564087
8.06004e-05
0.0052803
0.00989902
0.0138932
0.0172455
0.0199528
0.0220344
0.0235188
0.0244507
0.0248767
0.0248539
0.0244349
0.0236784
0.0226346
0.0213564
0.0198854
0.0182651
0.0165258
0.014701
0.0128101
0.0108771
0.00891252
0.00693301
0.00494247
0.00295259
0.000964383
-0.0959996
-0.0970861
-0.0979234
-0.0985353
-0.0988521
-0.0989709
-0.0990055
-0.0990192
-0.0990351
-0.0990654
-0.0991046
-0.0991453
-0.0991858
-0.0992246
-0.0992596
-0.0992886
-0.0993107
-0.0993256
-0.0993292
-0.0993152
-0.0992818
-0.0992286
-0.0991552
-0.0990612
-0.0989466
-0.098809
-0.0986461
-0.0984569
-0.0982418
-0.0980005
-0.0977317
-0.0974334
-0.0971032
-0.0967376
-0.0963327
-0.0958836
-0.0953853
-0.0948326
-0.0942183
-0.0935339
-0.0927683
-0.0919082
-0.090937
-0.089835
-0.0885767
-0.0871302
-0.0854569
-0.0835131
-0.0812516
-0.0786265
-0.075595
-0.0721231
-0.0681889
-0.0637917
-0.0589498
-0.0537049
-0.0481175
-0.0422694
-0.036255
-0.0301829
-0.0241618
-0.018303
-0.0127054
-0.00746163
-0.00264332
0.00169071
0.00550664
0.00878019
0.0115107
0.013703
0.0153833
0.0165776
0.0173305
0.0176795
0.0176779
0.0173664
0.0167996
0.0160144
0.0150612
0.0139677
0.0127766
0.0115041
0.0101856
0.00882678
0.00745685
0.00607248
0.00469934
0.00332688
0.00197863
0.000636332
-0.118671
-0.103756
-0.101829
-0.100353
-0.0994382
-0.0990096
-0.098835
-0.0987731
-0.0987547
-0.0987586
-0.0987976
-0.0988597
-0.0989246
-0.0989854
-0.0990403
-0.0990877
-0.0991248
-0.099148
-0.0991525
-0.0991329
-0.0990864
-0.0990113
-0.0989076
-0.098776
-0.0986159
-0.0984244
-0.0981984
-0.0979352
-0.0976332
-0.0972911
-0.0969071
-0.0964794
-0.0960054
-0.0954814
-0.0949032
-0.0942656
-0.0935632
-0.0927902
-0.0919393
-0.0910022
-0.0899682
-0.0888248
-0.0875561
-0.0861417
-0.0845583
-0.0827801
-0.0807781
-0.0785214
-0.0759786
-0.0731209
-0.0699244
-0.0663744
-0.0624679
-0.0582175
-0.0536509
-0.0488125
-0.0437592
-0.0385626
-0.0333023
-0.0280667
-0.0229419
-0.0180139
-0.0133557
-0.00903464
-0.00510047
-0.00159273
0.00147342
0.00408746
0.00625807
0.00799332
0.00932125
0.0102649
0.0108663
0.0111555
0.0111811
0.0109739
0.0105842
0.0100382
0.0093835
0.00863614
0.00783799
0.00699273
0.00613733
0.00526329
0.00440555
0.00354475
0.00271735
0.00189432
0.00111576
0.000338889
-0.0862389
-0.0926912
-0.0951987
-0.096043
-0.0964919
-0.0968949
-0.0972679
-0.0975815
-0.0978529
-0.0980892
-0.0982928
-0.0984661
-0.0986122
-0.098735
-0.0988368
-0.0989172
-0.0989728
-0.0989992
-0.0989911
-0.0989442
-0.098855
-0.0987216
-0.0985434
-0.0983202
-0.0980513
-0.0977351
-0.0973696
-0.0969529
-0.0964835
-0.0959601
-0.095381
-0.0947431
-0.0940431
-0.0932776
-0.092443
-0.0915351
-0.0905493
-0.0894801
-0.0883215
-0.087066
-0.0857049
-0.0842279
-0.0826225
-0.0808745
-0.078968
-0.0768861
-0.0746108
-0.0721239
-0.069408
-0.0664492
-0.0632383
-0.0597734
-0.0560617
-0.0521206
-0.0479786
-0.0436749
-0.0392574
-0.0347829
-0.030315
-0.0259221
-0.0216712
-0.0176274
-0.0138457
-0.0103738
-0.00724221
-0.00447309
-0.00207111
-3.80004e-05
0.00163901
0.00297079
0.00398497
0.00470392
0.00516699
0.00540073
0.00544883
0.00533557
0.00510538
0.00477618
0.00439071
0.00395634
0.00351243
0.00305239
0.00261318
0.00217294
0.00177085
0.00137016
0.0010188
0.000664059
0.000366709
5.21987e-05
-0.0803247
-0.0880993
-0.0920801
-0.0935046
-0.0939399
-0.0942788
-0.094779
-0.0953974
-0.0960206
-0.0965742
-0.0970348
-0.0974107
-0.0977198
-0.0979769
-0.098189
-0.0983565
-0.0984752
-0.098539
-0.098542
-0.0984791
-0.098347
-0.0981438
-0.0978693
-0.0975237
-0.0971077
-0.0966221
-0.096067
-0.0954428
-0.0947495
-0.093987
-0.0931547
-0.0922516
-0.091276
-0.0902261
-0.0890997
-0.0878942
-0.0866064
-0.0852324
-0.0837679
-0.0822078
-0.0805464
-0.078777
-0.0768924
-0.0748842
-0.0727439
-0.070462
-0.068029
-0.0654355
-0.0626735
-0.0597377
-0.0566275
-0.0533471
-0.0499074
-0.0463269
-0.0426321
-0.0388584
-0.0350483
-0.0312495
-0.0275117
-0.0238855
-0.02042
-0.017162
-0.0141504
-0.0114163
-0.00897928
-0.00685141
-0.0050318
-0.00351234
-0.00227424
-0.00130049
-0.000564461
-4.27357e-05
0.000300126
0.000491206
0.00056913
0.000555668
0.000485541
0.000370165
0.000241281
0.000100452
-2.10241e-05
-0.000134905
-0.000209698
-0.000274546
-0.000291947
-0.000310715
-0.000275955
-0.000261755
-0.000186136
-0.000161621
-0.0701364
-0.0773219
-0.0826653
-0.0861573
-0.0883051
-0.0897655
-0.0909869
-0.0921483
-0.0932624
-0.0942838
-0.0951748
-0.0959252
-0.0965455
-0.0970527
-0.0974603
-0.0977751
-0.0979975
-0.0981247
-0.098153
-0.0980791
-0.0979017
-0.0976206
-0.0972375
-0.0967549
-0.0961759
-0.095504
-0.0947424
-0.0938942
-0.092962
-0.0919479
-0.0908537
-0.0896804
-0.0884285
-0.0870976
-0.085687
-0.0841954
-0.0826209
-0.0809616
-0.0792149
-0.0773781
-0.0754484
-0.0734229
-0.0712985
-0.0690722
-0.0667411
-0.0643028
-0.0617549
-0.0590961
-0.0563264
-0.0534473
-0.0504625
-0.0473791
-0.0442087
-0.0409681
-0.0376815
-0.0343806
-0.0311039
-0.0278941
-0.0247938
-0.0218424
-0.0190729
-0.0165111
-0.0141758
-0.0120823
-0.0102431
-0.0086667
-0.00734983
-0.00627424
-0.00540929
-0.00472643
-0.00419881
-0.00380544
-0.00351994
-0.00331672
-0.00316355
-0.00303984
-0.00292394
-0.00281158
-0.00268901
-0.00255955
-0.00240682
-0.00224101
-0.00204203
-0.0018331
-0.00158522
-0.00134068
-0.00105112
-0.000792932
-0.000478033
-0.000246453
-0.0649342
-0.0715589
-0.0770354
-0.0812594
-0.0843545
-0.0866307
-0.0884288
-0.0899876
-0.0914149
-0.0927284
-0.093908
-0.0949331
-0.0957972
-0.0965062
-0.0970702
-0.0974974
-0.0977917
-0.0979531
-0.09798
-0.097871
-0.0976261
-0.0972472
-0.0967379
-0.0961031
-0.0953486
-0.0944805
-0.0935047
-0.0924269
-0.0912523
-0.0899857
-0.088631
-0.0871913
-0.0856687
-0.0840644
-0.0823788
-0.0806117
-0.0787629
-0.0768318
-0.0748179
-0.072721
-0.0705412
-0.068279
-0.0659354
-0.0635122
-0.061012
-0.0584384
-0.0557959
-0.05309
-0.0503271
-0.0475141
-0.0446588
-0.0417696
-0.0388571
-0.0359354
-0.0330237
-0.0301489
-0.027346
-0.0246567
-0.0221233
-0.0197799
-0.0176446
-0.0157169
-0.0139856
-0.0124427
-0.0110942
-0.00995362
-0.00902207
-0.00827602
-0.00767058
-0.00716028
-0.00671731
-0.00633304
-0.00600164
-0.00571139
-0.00544062
-0.00517009
-0.00488376
-0.00457842
-0.00425281
-0.00391587
-0.00356801
-0.00321793
-0.00285811
-0.00249825
-0.00212273
-0.00175217
-0.00135819
-0.000989794
-0.000583226
-0.000258943
-0.0604441
-0.066723
-0.0721936
-0.0767605
-0.0804311
-0.0833386
-0.085693
-0.0876938
-0.0894735
-0.0910907
-0.0925528
-0.0938466
-0.0949585
-0.0958834
-0.0966236
-0.0971842
-0.0975691
-0.0977802
-0.097818
-0.0976829
-0.0973773
-0.0969057
-0.0962747
-0.0954923
-0.0945669
-0.0935072
-0.0923217
-0.0910188
-0.0896066
-0.0880928
-0.0864838
-0.0847849
-0.0829999
-0.0811315
-0.0791814
-0.0771507
-0.0750404
-0.0728515
-0.0705856
-0.0682449
-0.0658327
-0.063353
-0.0608109
-0.0582128
-0.0555662
-0.0528801
-0.0501655
-0.0474346
-0.0447005
-0.0419758
-0.0392716
-0.0365975
-0.033962
-0.0313745
-0.0288462
-0.0263928
-0.0240392
-0.0218242
-0.0197935
-0.0179833
-0.0164021
-0.0150189
-0.0137839
-0.0126617
-0.0116537
-0.0107821
-0.0100603
-0.00947554
-0.00898086
-0.00851748
-0.008051
-0.0075811
-0.00712323
-0.00669072
-0.00628444
-0.00589714
-0.00551794
-0.00513782
-0.00474928
-0.00435231
-0.00394713
-0.00353881
-0.00312611
-0.00271348
-0.00229504
-0.0018786
-0.00145349
-0.00104211
-0.000615564
-0.000250963
-0.0568871
-0.0629667
-0.0684226
-0.0731772
-0.0772074
-0.0805672
-0.0833779
-0.085785
-0.0879089
-0.0898212
-0.0915479
-0.0930866
-0.0944244
-0.0955502
-0.0964584
-0.0971484
-0.0976212
-0.0978782
-0.0979206
-0.0977506
-0.0973729
-0.0967957
-0.0960298
-0.0950877
-0.0939816
-0.0927229
-0.0913225
-0.0897915
-0.0881406
-0.08638
-0.0845186
-0.0825642
-0.0805226
-0.0783982
-0.0761942
-0.0739132
-0.0715576
-0.0691301
-0.0666344
-0.0640755
-0.0614597
-0.0587954
-0.0560922
-0.0533611
-0.0506141
-0.0478642
-0.0451269
-0.042421
-0.039767
-0.0371822
-0.0346788
-0.0322639
-0.0299411
-0.0277136
-0.0255837
-0.0235515
-0.0216201
-0.0198168
-0.0181852
-0.0167657
-0.0155718
-0.0145553
-0.0136439
-0.0127864
-0.0119747
-0.0112216
-0.010532
-0.00992552
-0.00939661
-0.00890904
-0.00843548
-0.0079776
-0.00752657
-0.00707615
-0.0066248
-0.00617262
-0.00572015
-0.00527042
-0.00482712
-0.00439308
-0.00396752
-0.00354865
-0.00313379
-0.0027214
-0.00230664
-0.0018903
-0.00146856
-0.00104995
-0.000628557
-0.000253973
-0.0540336
-0.060014
-0.0654666
-0.0703257
-0.074571
-0.0782349
-0.0813942
-0.0841479
-0.0865889
-0.0887836
-0.0907643
-0.0925364
-0.0940895
-0.0954091
-0.096483
-0.0973039
-0.0978681
-0.0981742
-0.098223
-0.0980175
-0.0975645
-0.0968755
-0.0959671
-0.0948586
-0.0935672
-0.0921078
-0.0904943
-0.0887404
-0.0868596
-0.0848646
-0.0827673
-0.0805775
-0.0783033
-0.0759513
-0.0735262
-0.0710324
-0.0684741
-0.0658557
-0.0631831
-0.0604639
-0.0577077
-0.0549271
-0.0521367
-0.0493531
-0.0465923
-0.0438684
-0.0411964
-0.0385994
-0.0361008
-0.0337177
-0.0314575
-0.0293187
-0.0272957
-0.0253847
-0.023585
-0.0218955
-0.0203146
-0.018845
-0.0175102
-0.0163294
-0.0152929
-0.0143799
-0.0135631
-0.0128158
-0.0121303
-0.0115104
-0.0109448
-0.0103839
-0.00979599
-0.009184
-0.00858238
-0.00801118
-0.00748157
-0.00699693
-0.00654678
-0.00611477
-0.00568896
-0.00526387
-0.00483811
-0.00441266
-0.00398921
-0.00356944
-0.00315224
-0.00273633
-0.00231944
-0.00190094
-0.00147939
-0.00105902
-0.000646416
-0.000250619
-0.0516907
-0.0576519
-0.0631134
-0.068031
-0.0724051
-0.0762735
-0.0796963
-0.0827412
-0.0854719
-0.0879383
-0.0901696
-0.092173
-0.0939394
-0.0954521
-0.0966937
-0.0976497
-0.0983104
-0.0986708
-0.0987308
-0.0984943
-0.0979703
-0.0971736
-0.0961262
-0.0948544
-0.093382
-0.0917305
-0.0899197
-0.0879679
-0.0858921
-0.0837075
-0.0814275
-0.0790636
-0.0766247
-0.0741183
-0.0715505
-0.0689264
-0.0662515
-0.0635316
-0.0607737
-0.057987
-0.0551828
-0.0523757
-0.0495835
-0.0468268
-0.0441259
-0.0414958
-0.0389566
-0.0365302
-0.0342318
-0.0320662
-0.0300279
-0.0281055
-0.0262825
-0.0245469
-0.0229025
-0.0213716
-0.0199857
-0.0187681
-0.0177182
-0.0168061
-0.0159328
-0.015028
-0.014082
-0.0131326
-0.0122541
-0.0114843
-0.0108169
-0.0102276
-0.00967542
-0.00913052
-0.00859095
-0.00806285
-0.00755825
-0.00707945
-0.00661923
-0.00617017
-0.00572749
-0.00528938
-0.00485588
-0.00442717
-0.00400225
-0.00358077
-0.00316191
-0.00274458
-0.00232737
-0.00190922
-0.00148946
-0.00107225
-0.000665092
-0.000249787
-0.0501981
-0.0561294
-0.0615614
-0.0664861
-0.0709278
-0.0749278
-0.0785354
-0.0817992
-0.0847616
-0.0874567
-0.0899047
-0.0921095
-0.0940618
-0.0957431
-0.0971318
-0.0982074
-0.0989541
-0.0993623
-0.0994298
-0.0991623
-0.0985737
-0.097684
-0.0965168
-0.0950982
-0.0934596
-0.0916334
-0.0896495
-0.087534
-0.0853089
-0.0829923
-0.0805985
-0.0781388
-0.0756216
-0.0730535
-0.0704395
-0.0677841
-0.0650919
-0.0623678
-0.0596182
-0.0568513
-0.0540778
-0.0513115
-0.0485697
-0.0458739
-0.0432495
-0.0407272
-0.0383358
-0.0360947
-0.0340113
-0.0320775
-0.0302687
-0.0285497
-0.0268857
-0.0252376
-0.0235954
-0.0219799
-0.0204375
-0.0190227
-0.0177779
-0.0166863
-0.0157151
-0.0148123
-0.0139504
-0.0131234
-0.0123438
-0.0116271
-0.0109777
-0.0103713
-0.00978536
-0.00921047
-0.00864961
-0.00811002
-0.00759645
-0.00710771
-0.00663967
-0.00618631
-0.00574234
-0.00530444
-0.00487105
-0.0044417
-0.00401602
-0.00359352
-0.00317344
-0.002755
-0.00233745
-0.00192
-0.00150233
-0.0010875
-0.000678997
-0.000251706
-0.0493057
-0.0552574
-0.0606931
-0.0656393
-0.070136
-0.0742264
-0.0779541
-0.081363
-0.0844897
-0.0873564
-0.0899711
-0.0923294
-0.0944177
-0.0962161
-0.0977023
-0.0988556
-0.0996595
-0.100105
-0.10019
-0.0999219
-0.0993179
-0.0984011
-0.0972008
-0.0957489
-0.0940785
-0.0922219
-0.0902094
-0.088068
-0.0858207
-0.0834866
-0.0810806
-0.0786143
-0.0760962
-0.0735329
-0.0709293
-0.0682896
-0.0656176
-0.0629179
-0.0601956
-0.0574577
-0.0547133
-0.0519741
-0.0492549
-0.0465738
-0.0439522
-0.0414126
-0.0389771
-0.036663
-0.0344801
-0.0324281
-0.0304974
-0.0286764
-0.0269201
-0.0252156
-0.023563
-0.0219808
-0.0205042
-0.0191645
-0.0179758
-0.0169208
-0.0159488
-0.0150156
-0.0141071
-0.0132336
-0.0124192
-0.0116793
-0.011008
-0.0103868
-0.00979467
-0.00922126
-0.00866623
-0.00813299
-0.00762381
-0.00713701
-0.00666806
-0.00621205
-0.00576519
-0.00532518
-0.0048907
-0.00446093
-0.00403508
-0.00361238
-0.00319202
-0.00277332
-0.00235581
-0.00193927
-0.00152354
-0.00110908
-0.000694693
-0.00025866
)
;

boundaryField
{
    fixedWalls
    {
        type            zeroGradient;
    }
    inflowWall
    {
        type            zeroGradient;
    }
    outflowWall
    {
        type            fixedValue;
        value           uniform 0;
    }
    frontAndBack
    {
        type            empty;
    }
}


// ************************************************************************* //
