/*--------------------------------*- C++ -*----------------------------------*\
| =========                 |                                                 |
| \\      /  F ield         | OpenFOAM: The Open Source CFD Toolbox           |
|  \\    /   O peration     | Version:  2306                                  |
|   \\  /    A nd           | Website:  www.openfoam.com                      |
|    \\/     M anipulation  |                                                 |
\*---------------------------------------------------------------------------*/
FoamFile
{
    version     2.0;
    format      ascii;
    arch        "LSB;label=32;scalar=64";
    class       volScalarField;
    location    "0.23";
    object      p;
}
// * * * * * * * * * * * * * * * * * * * * * * * * * * * * * * * * * * * * * //

dimensions      [0 2 -2 0 0 0 0];

internalField   nonuniform List<scalar> 
475
(
3.10574
2.38551
1.91917
1.57985
1.21468
2.52643
2.23358
1.91522
1.62947
1.36579
2.42094
2.22839
1.96255
1.70608
1.48626
2.56494
2.27885
1.98447
1.73998
1.54033
3.15604
2.44219
2.00692
1.73636
1.52656
0.99203
1.01126
1.05113
1.0945
1.12966
1.14975
1.15406
1.14414
1.12304
1.09416
1.0605
1.02437
0.987417
0.950668
0.914704
0.879786
0.845973
0.813205
0.781358
0.750282
0.719823
0.689836
0.660193
0.630784
0.60152
0.572332
0.54317
0.514
0.484802
0.455566
0.42629
0.396977
0.367632
0.338262
0.308873
0.279471
0.25006
0.220644
0.191225
0.161805
0.132385
0.102965
0.0735458
0.0441272
0.014709
0.975542
1.00034
1.0376
1.0773
1.10943
1.12877
1.13385
1.12588
1.10747
1.08158
1.05086
1.01741
0.982727
0.947799
0.913216
0.879289
0.846136
0.813766
0.782119
0.751101
0.720604
0.690524
0.66076
0.631225
0.601842
0.572552
0.543308
0.514076
0.484834
0.45557
0.426278
0.396957
0.36761
0.338242
0.308856
0.279457
0.25005
0.220637
0.19122
0.161802
0.132383
0.102964
0.0735452
0.0441269
0.014709
0.917662
0.976834
1.02357
1.06719
1.10103
1.12034
1.12473
1.11627
1.09791
1.07263
1.04296
1.01079
0.977464
0.943828
0.910388
0.877415
0.845002
0.81319
0.781935
0.751172
0.720825
0.690814
0.661066
0.631511
0.602091
0.572755
0.543465
0.514191
0.484914
0.455622
0.426309
0.396973
0.367616
0.338241
0.308852
0.279452
0.250044
0.220632
0.191216
0.161798
0.13238
0.102962
0.073544
0.0441263
0.0147088
0.836748
0.944581
1.01194
1.06218
1.09735
1.11512
1.11695
1.10634
1.08684
1.06146
1.0325
1.00159
0.969774
0.937703
0.905733
0.874048
0.842711
0.811749
0.781139
0.75084
0.720805
0.690988
0.661342
0.631826
0.6024
0.573033
0.543698
0.514376
0.485053
0.45572
0.426375
0.397014
0.367639
0.338251
0.308854
0.279449
0.250039
0.220626
0.19121
0.161794
0.132377
0.102959
0.0735422
0.0441252
0.0147084
0.563068
0.893864
1.01358
1.0675
1.09819
1.11037
1.10722
1.09318
1.07208
1.04665
1.01873
0.989511
0.959681
0.929627
0.899541
0.869512
0.839561
0.809711
0.779954
0.750282
0.720682
0.691145
0.661658
0.632212
0.602794
0.573396
0.544009
0.514627
0.485244
0.455858
0.426468
0.397073
0.367672
0.338267
0.308858
0.279446
0.250033
0.220619
0.191203
0.161787
0.132372
0.102956
0.0735396
0.0441237
0.0147079
0.931656
1.00651
1.07189
1.09927
1.10929
1.10772
1.09626
1.07776
1.055
1.02985
1.00339
0.976245
0.948704
0.920895
0.89286
0.864613
0.836152
0.807495
0.778655
0.74966
0.720534
0.691304
0.661995
0.632629
0.603224
0.573795
0.544352
0.514905
0.485457
0.456013
0.426573
0.397138
0.367709
0.338284
0.308862
0.279443
0.250026
0.22061
0.191195
0.161781
0.132366
0.102951
0.0735368
0.0441221
0.0147074
1.16878
1.13009
1.13617
1.13233
1.11993
1.10344
1.08365
1.0614
1.0378
1.01355
0.988941
0.964027
0.938769
0.913097
0.886954
0.860306
0.833193
0.805591
0.777558
0.749155
0.720442
0.691478
0.66232
0.633019
0.60362
0.574159
0.544664
0.515156
0.485649
0.456151
0.426666
0.397197
0.367742
0.338299
0.308866
0.27944
0.25002
0.220603
0.191188
0.161774
0.132361
0.102948
0.0735343
0.0441207
0.0147068
1.3175
1.22925
1.18554
1.15204
1.12168
1.09445
1.06939
1.04556
1.0225
0.999875
0.977321
0.954528
0.931258
0.907346
0.882701
0.857305
0.831168
0.804334
0.776881
0.748894
0.720462
0.691672
0.662607
0.633339
0.603932
0.574438
0.544898
0.515341
0.485788
0.456249
0.426732
0.397238
0.367764
0.338309
0.308868
0.279437
0.250015
0.220597
0.191183
0.16177
0.132357
0.102945
0.0735324
0.0441196
0.0147065
1.38124
1.27083
1.19859
1.14744
1.10849
1.07776
1.05233
1.02995
1.00915
0.98896
0.968701
0.947927
0.926359
0.903843
0.880315
0.855771
0.83028
0.803921
0.776798
0.749024
0.720714
0.691978
0.662919
0.633628
0.604182
0.574642
0.545055
0.515456
0.485867
0.456301
0.426763
0.397253
0.36777
0.338308
0.308864
0.279432
0.25001
0.220592
0.191178
0.161766
0.132355
0.102943
0.0735312
0.0441189
0.0147063
1.35937
1.23838
1.15813
1.10584
1.07074
1.04586
1.02662
1.01
0.994181
0.978073
0.961064
0.942818
0.923173
0.902084
0.87959
0.855769
0.830744
0.804655
0.777652
0.749889
0.721517
0.692675
0.66349
0.63407
0.604504
0.574862
0.545193
0.515532
0.4859
0.456306
0.426751
0.397234
0.367748
0.338288
0.308846
0.279418
0.249999
0.220585
0.191173
0.161763
0.132353
0.102942
0.0735306
0.0441187
0.0147063
)
;

boundaryField
{
    fixedWalls
    {
        type            zeroGradient;
    }
    inflowWall
    {
        type            zeroGradient;
    }
    outflowWall
    {
        type            fixedValue;
        value           uniform 0;
    }
    frontAndBack
    {
        type            empty;
    }
}


// ************************************************************************* //
