/*--------------------------------*- C++ -*----------------------------------*\
| =========                 |                                                 |
| \\      /  F ield         | OpenFOAM: The Open Source CFD Toolbox           |
|  \\    /   O peration     | Version:  2306                                  |
|   \\  /    A nd           | Website:  www.openfoam.com                      |
|    \\/     M anipulation  |                                                 |
\*---------------------------------------------------------------------------*/
FoamFile
{
    version     2.0;
    format      ascii;
    arch        "LSB;label=32;scalar=64";
    class       surfaceScalarField;
    location    "0.23";
    object      phi;
}
// * * * * * * * * * * * * * * * * * * * * * * * * * * * * * * * * * * * * * //

dimensions      [0 3 -1 0 0 0 0];

oriented        oriented;

internalField   nonuniform List<scalar> 
890
(
8.50914e-05
1.49086e-05
7.26702e-05
1.24212e-05
6.71602e-05
5.51001e-06
6.78811e-05
-7.20885e-07
-9.59204e-06
7.74731e-05
0.0001097
5.20854e-06
0.000117543
4.57833e-06
0.000122405
6.47834e-07
0.000126114
-4.42991e-06
-1.13781e-05
0.0001279
0.00011182
-6.61137e-06
0.000124952
-8.55376e-06
0.000133372
-7.77237e-06
0.000137101
-8.1586e-06
-1.04719e-05
0.000136195
0.000109058
-1.56698e-05
0.000115017
-1.45122e-05
0.000116578
-9.33327e-06
0.000114865
-6.44544e-06
-5.61278e-06
0.000110006
8.43302e-05
6.9818e-05
6.04847e-05
5.40393e-05
4.84265e-05
-1.60693e-06
1.60693e-06
-2.47888e-06
8.71954e-07
-1.75694e-06
-7.21944e-07
2.31942e-07
-1.98888e-06
2.89781e-06
-2.66587e-06
5.73385e-06
-2.83603e-06
8.37145e-06
-2.6376e-06
1.06059e-05
-2.23443e-06
1.2363e-05
-1.75716e-06
1.36547e-05
-1.29162e-06
1.45398e-05
-8.85122e-07
1.50966e-05
-5.56819e-07
1.54045e-05
-3.07915e-07
1.55344e-05
-1.2987e-07
1.55446e-05
-1.01916e-08
1.54805e-05
6.41011e-08
1.53755e-05
1.04997e-07
1.52536e-05
1.21872e-07
1.51312e-05
1.22382e-07
1.50187e-05
1.12524e-07
1.49219e-05
9.68108e-08
1.48433e-05
7.85763e-08
1.47831e-05
6.02131e-08
1.47398e-05
4.33336e-08
1.47109e-05
2.88987e-08
1.46935e-05
1.73397e-08
1.46848e-05
8.68114e-09
1.46822e-05
2.66371e-09
1.46833e-05
-1.13926e-09
1.46865e-05
-3.22135e-09
1.46906e-05
-4.07202e-09
1.46947e-05
-4.11306e-09
1.46984e-05
-3.68599e-09
1.47015e-05
-3.04286e-09
1.47038e-05
-2.35229e-09
1.47055e-05
-1.71459e-09
1.47067e-05
-1.17926e-09
1.47075e-05
-7.61344e-10
1.47079e-05
-4.55145e-10
1.47082e-05
-2.44447e-10
1.47083e-05
-1.09522e-10
1.47083e-05
-3.14361e-11
1.47083e-05
6.1468e-12
1.47083e-05
1.49261e-11
7.02838e-12
-1.91184e-06
3.51877e-06
-1.45392e-06
4.14033e-07
1.66076e-06
-3.83662e-06
6.60156e-06
-6.92969e-06
1.24065e-05
-8.47083e-06
1.82615e-05
-8.69099e-06
2.36304e-05
-8.00653e-06
2.82191e-05
-6.82315e-06
3.19187e-05
-5.45676e-06
3.47457e-05
-4.11858e-06
3.67905e-05
-2.92997e-06
3.81791e-05
-1.94538e-06
3.90459e-05
-1.17471e-06
3.95178e-05
-6.01782e-07
3.97055e-05
-1.97921e-07
3.9701e-05
6.8621e-08
3.95755e-05
2.30543e-07
3.93841e-05
3.13216e-07
3.91671e-05
3.3943e-07
3.8952e-05
3.27637e-07
3.87564e-05
2.92354e-07
3.85902e-05
2.44773e-07
3.84572e-05
1.93244e-07
3.83569e-05
1.43649e-07
3.8286e-05
9.97415e-08
3.82399e-05
6.3506e-08
3.8213e-05
3.55302e-08
3.82003e-05
1.5397e-08
3.81971e-05
2.0409e-09
3.81997e-05
-5.84623e-09
3.82054e-05
-9.735e-09
3.82121e-05
-1.08651e-08
3.82188e-05
-1.0301e-08
3.82246e-05
-8.84923e-09
3.82293e-05
-7.06995e-09
3.82329e-05
-5.31517e-09
3.82355e-05
-3.77663e-09
3.82373e-05
-2.53352e-09
3.82384e-05
-1.59366e-09
3.82391e-05
-9.2543e-10
3.82394e-05
-4.80286e-10
3.82396e-05
-2.0711e-10
3.82397e-05
-6.01366e-11
3.82397e-05
-1.96801e-12
-2.79605e-13
5.23176e-09
3.51353e-06
3.86367e-06
-3.44441e-06
1.04137e-05
-1.03866e-05
1.80476e-05
-1.45637e-05
2.5705e-05
-1.61282e-05
3.27812e-05
-1.57672e-05
3.89552e-05
-1.41805e-05
4.40985e-05
-1.19665e-05
4.82099e-05
-9.56814e-06
5.13664e-05
-7.27508e-06
5.36874e-05
-5.25103e-06
5.53097e-05
-3.56767e-06
5.63704e-05
-2.23537e-06
5.69968e-05
-1.22819e-06
5.7301e-05
-5.02087e-07
5.73789e-05
-9.36693e-09
5.73044e-05
3.05056e-07
5.71398e-05
4.77844e-07
5.69309e-05
5.48322e-07
5.6711e-05
5.47509e-07
5.65028e-05
5.00642e-07
5.63198e-05
4.27721e-07
5.6169e-05
3.44064e-07
5.60519e-05
2.60776e-07
5.59664e-05
1.85229e-07
5.59083e-05
1.21608e-07
5.58723e-05
7.15371e-08
5.58529e-05
3.47426e-08
5.58452e-05
9.72246e-09
5.58451e-05
-5.68741e-09
5.58492e-05
-1.38528e-08
5.58552e-05
-1.69267e-08
5.58617e-05
-1.6769e-08
5.58677e-05
-1.48194e-08
5.58727e-05
-1.21002e-08
5.58767e-05
-9.27259e-09
5.58796e-05
-6.7142e-09
5.58817e-05
-4.59892e-09
5.58831e-05
-2.96791e-09
5.58839e-05
-1.78582e-09
5.58844e-05
-9.81133e-10
5.58847e-05
-4.7264e-10
5.58848e-05
-1.84609e-10
5.58849e-05
-5.33376e-11
-2.54108e-11
5.93105e-06
-2.41751e-06
1.55449e-05
-1.30583e-05
2.59084e-05
-2.07502e-05
3.5267e-05
-2.39222e-05
4.31805e-05
-2.40417e-05
4.96545e-05
-2.22411e-05
5.48282e-05
-1.93542e-05
5.88773e-05
-1.60156e-05
6.19797e-05
-1.26705e-05
6.43006e-05
-9.596e-06
6.59869e-05
-6.93731e-06
6.71656e-05
-4.74643e-06
6.79455e-05
-3.01518e-06
6.84182e-05
-1.70098e-06
6.86614e-05
-7.45261e-07
6.8739e-05
-8.69748e-08
6.87028e-05
3.41264e-07
6.85954e-05
5.85279e-07
6.845e-05
6.93663e-07
6.82916e-05
7.05944e-07
6.81377e-05
6.54585e-07
6.79996e-05
5.65823e-07
6.78835e-05
4.60134e-07
6.77916e-05
3.52664e-07
6.77231e-05
2.53707e-07
6.76754e-05
1.69335e-07
6.76448e-05
1.02163e-07
6.76273e-05
5.22049e-08
6.76193e-05
1.77443e-08
6.76175e-05
-3.91061e-09
6.76195e-05
-1.58377e-08
6.76233e-05
-2.07743e-08
6.76278e-05
-2.12197e-08
6.76321e-05
-1.91023e-08
6.76358e-05
-1.58097e-08
6.76388e-05
-1.22544e-08
6.7641e-05
-8.9702e-09
6.76426e-05
-6.2153e-09
6.76437e-05
-4.06588e-09
6.76444e-05
-2.49069e-09
6.76449e-05
-1.40549e-09
6.76451e-05
-7.0909e-10
6.76452e-05
-3.04559e-10
6.76453e-05
-1.09052e-10
-5.38102e-11
2.23103e-05
-2.47278e-05
3.9253e-05
-3.0001e-05
5.07103e-05
-3.22075e-05
5.86651e-05
-3.1877e-05
6.40809e-05
-2.94576e-05
6.76807e-05
-2.58409e-05
7.00323e-05
-2.17058e-05
7.15471e-05
-1.75303e-05
7.25126e-05
-1.3636e-05
7.31241e-05
-1.02075e-05
7.35091e-05
-7.32233e-06
7.37477e-05
-4.985e-06
7.38887e-05
-3.15618e-06
7.3962e-05
-1.77427e-06
7.39867e-05
-7.69935e-07
7.39769e-05
-7.722e-08
7.39417e-05
3.76446e-07
7.38909e-05
6.36132e-07
7.38318e-05
7.52733e-07
7.37708e-05
7.66989e-07
7.37126e-05
7.12755e-07
7.36607e-05
6.17743e-07
7.3617e-05
5.0385e-07
7.35822e-05
3.87461e-07
7.3556e-05
2.79843e-07
7.35376e-05
1.87744e-07
7.35256e-05
1.14152e-07
7.35186e-05
5.92068e-08
7.35152e-05
2.1129e-08
7.35143e-05
-2.93045e-09
7.35148e-05
-1.63615e-08
7.35161e-05
-2.20597e-08
7.35176e-05
-2.27837e-08
7.35192e-05
-2.06433e-08
7.35205e-05
-1.71644e-08
7.35216e-05
-1.33556e-08
7.35225e-05
-9.81134e-09
7.35231e-05
-6.82356e-09
7.35235e-05
-4.48314e-09
7.35238e-05
-2.76168e-09
7.35239e-05
-1.57109e-09
7.3524e-05
-8.03336e-10
7.35241e-05
-3.53953e-10
7.35241e-05
-1.33169e-10
-6.64752e-11
7.98018e-05
-2.70564e-05
8.32706e-05
-3.34698e-05
8.50678e-05
-3.40047e-05
8.53136e-05
-3.21228e-05
8.44877e-05
-2.86317e-05
8.29865e-05
-2.43398e-05
8.11799e-05
-1.98992e-05
7.93608e-05
-1.57112e-05
7.77165e-05
-1.19917e-05
7.63413e-05
-8.83229e-06
7.52621e-05
-6.24313e-06
7.44631e-05
-4.18602e-06
7.39058e-05
-2.5989e-06
7.35433e-05
-1.41169e-06
7.33288e-05
-5.55502e-07
7.32207e-05
3.09104e-08
7.31861e-05
4.11015e-07
7.3198e-05
6.24287e-07
7.32362e-05
7.14521e-07
7.32866e-05
7.16599e-07
7.33395e-05
6.59814e-07
7.3389e-05
5.68305e-07
7.34315e-05
4.6128e-07
7.34658e-05
3.53174e-07
7.34918e-05
2.53914e-07
7.35101e-05
1.69398e-07
7.35221e-05
1.02159e-07
7.35291e-05
5.21728e-08
7.35326e-05
1.77054e-08
7.35336e-05
-3.94622e-09
7.35331e-05
-1.58655e-08
7.35318e-05
-2.0794e-08
7.35303e-05
-2.12325e-08
7.35287e-05
-1.91098e-08
7.35274e-05
-1.58138e-08
7.35263e-05
-1.22564e-08
7.35254e-05
-8.97101e-09
7.35248e-05
-6.21552e-09
7.35244e-05
-4.06584e-09
7.35241e-05
-2.49059e-09
7.3524e-05
-1.40544e-09
7.35239e-05
-7.09176e-10
7.35238e-05
-3.04904e-10
7.35238e-05
-1.09794e-10
-5.46123e-11
0.000122528
-2.16839e-05
0.000115899
-2.68407e-05
0.00010897
-2.7076e-05
0.000101834
-2.49872e-05
9.49543e-05
-2.17517e-05
8.86779e-05
-1.80634e-05
8.32087e-05
-1.44301e-05
7.86436e-05
-1.11461e-05
7.49864e-05
-8.3345e-06
7.21711e-05
-6.01702e-06
7.0091e-05
-4.16307e-06
6.86232e-05
-2.71819e-06
6.7645e-05
-1.62071e-06
6.70441e-05
-8.10759e-07
6.6723e-05
-2.34413e-07
6.6599e-05
1.54932e-07
6.6611e-05
3.98982e-07
6.67058e-05
5.2951e-07
6.6845e-05
5.75364e-07
6.70005e-05
5.61058e-07
6.71531e-05
5.07196e-07
6.72906e-05
4.30817e-07
6.74064e-05
3.45505e-07
6.74981e-05
2.61431e-07
6.75665e-05
1.85503e-07
6.76142e-05
1.21694e-07
6.76449e-05
7.15305e-08
6.76623e-05
3.46965e-08
6.76704e-05
9.66645e-09
6.76722e-05
-5.73836e-09
6.76702e-05
-1.38925e-08
6.76664e-05
-1.69543e-08
6.76619e-05
-1.67866e-08
6.76576e-05
-1.48296e-08
6.76539e-05
-1.21056e-08
6.76509e-05
-9.27509e-09
6.76487e-05
-6.71513e-09
6.76471e-05
-4.59909e-09
6.7646e-05
-2.96778e-09
6.76453e-05
-1.78563e-09
6.76448e-05
-9.81051e-10
6.76446e-05
-4.72795e-10
6.76445e-05
-1.85177e-10
6.76444e-05
-5.45346e-11
-2.6682e-11
0.000129038
-1.45276e-05
0.000118853
-1.66557e-05
0.000107963
-1.6186e-05
9.73508e-05
-1.43746e-05
8.76861e-05
-1.2087e-05
7.93617e-05
-9.73906e-06
7.25013e-05
-7.56961e-06
6.70546e-05
-5.69944e-06
6.28777e-05
-4.15757e-06
5.97845e-05
-2.92391e-06
5.75813e-05
-1.95985e-06
5.60859e-05
-1.22279e-06
5.51376e-05
-6.72371e-07
5.45999e-05
-2.73071e-07
5.43595e-05
5.99173e-09
5.43262e-05
1.88218e-07
5.44283e-05
2.96869e-07
5.46097e-05
3.48177e-07
5.4828e-05
3.57007e-07
5.50529e-05
3.36135e-07
5.52638e-05
2.96373e-07
5.54479e-05
2.46678e-07
5.55992e-05
1.94164e-07
5.57166e-05
1.44094e-07
5.58021e-05
9.99411e-08
5.58603e-05
6.35717e-08
5.58963e-05
3.55248e-08
5.59156e-05
1.53596e-08
5.59233e-05
1.99519e-09
5.59234e-05
-5.88711e-09
5.59193e-05
-9.76621e-09
5.59132e-05
-1.08863e-08
5.59068e-05
-1.0314e-08
5.59008e-05
-8.85647e-09
5.58957e-05
-7.07354e-09
5.58918e-05
-5.31667e-09
5.58888e-05
-3.77705e-09
5.58868e-05
-2.53346e-09
5.58854e-05
-1.59345e-09
5.58845e-05
-9.25236e-10
5.5884e-05
-4.80213e-10
5.58838e-05
-2.07252e-10
5.58837e-05
-6.06447e-11
5.58836e-05
-3.02144e-12
-1.41695e-12
0.000101477
-5.99874e-06
9.09096e-05
-6.08862e-06
8.01992e-05
-5.47566e-06
7.03748e-05
-4.55011e-06
6.19063e-05
-3.61854e-06
5.4952e-05
-2.78477e-06
4.94623e-05
-2.07985e-06
4.52719e-05
-1.50901e-06
4.21742e-05
-1.05987e-06
3.99632e-05
-7.12924e-07
3.84524e-05
-4.49095e-07
3.74816e-05
-2.52027e-07
3.69175e-05
-1.08197e-07
3.66513e-05
-6.86422e-09
3.65957e-05
6.15347e-08
3.66806e-05
1.03381e-07
3.68522e-05
1.25177e-07
3.70688e-05
1.31616e-07
3.7299e-05
1.26849e-07
3.75206e-05
1.14519e-07
3.77192e-05
9.77265e-08
3.78869e-05
7.90376e-08
3.80206e-05
6.04706e-08
3.81212e-05
4.34801e-08
3.81921e-05
2.89729e-08
3.82384e-05
1.73655e-08
3.82652e-05
8.67798e-09
3.82779e-05
2.64712e-09
3.82811e-05
-1.15884e-09
3.82784e-05
-3.23833e-09
3.82727e-05
-4.0844e-09
3.8266e-05
-4.121e-09
3.82593e-05
-3.69051e-09
3.82535e-05
-3.04512e-09
3.82488e-05
-2.35322e-09
3.82452e-05
-1.71484e-09
3.82426e-05
-1.1792e-09
3.82408e-05
-7.61181e-10
3.82397e-05
-4.54975e-10
3.8239e-05
-2.44311e-10
3.82386e-05
-1.09442e-10
3.82385e-05
-3.14508e-11
3.82384e-05
5.93312e-12
3.82384e-05
1.44787e-11
6.53045e-12
4.24278e-05
3.63391e-05
3.08635e-05
2.63134e-05
2.26948e-05
1.99101e-05
1.78302e-05
1.63212e-05
1.52613e-05
1.45484e-05
1.40993e-05
1.38473e-05
1.37391e-05
1.37322e-05
1.37938e-05
1.38972e-05
1.40223e-05
1.41539e-05
1.42808e-05
1.43953e-05
1.4493e-05
1.45721e-05
1.46325e-05
1.4676e-05
1.4705e-05
1.47224e-05
1.4731e-05
1.47337e-05
1.47325e-05
1.47293e-05
1.47252e-05
1.47211e-05
1.47174e-05
1.47144e-05
1.4712e-05
1.47103e-05
1.47091e-05
1.47083e-05
1.47079e-05
1.47076e-05
1.47075e-05
1.47075e-05
1.47075e-05
1.47075e-05
)
;

boundaryField
{
    fixedWalls
    {
        type            calculated;
        value           uniform 0;
    }
    inflowWall
    {
        type            calculated;
        value           nonuniform List<scalar> 5(-0.0001 -0.0001 -0.0001 -0.0001 -0.0001);
    }
    outflowWall
    {
        type            calculated;
        value           nonuniform List<scalar> 10(1.47083e-05 3.82397e-05 5.58849e-05 6.76453e-05 7.35241e-05 7.35238e-05 6.76444e-05 5.58836e-05 3.82384e-05 1.47075e-05);
    }
    frontAndBack
    {
        type            empty;
        value           nonuniform List<scalar> 0();
    }
}


// ************************************************************************* //
