/*--------------------------------*- C++ -*----------------------------------*\
| =========                 |                                                 |
| \\      /  F ield         | OpenFOAM: The Open Source CFD Toolbox           |
|  \\    /   O peration     | Version:  2306                                  |
|   \\  /    A nd           | Website:  www.openfoam.com                      |
|    \\/     M anipulation  |                                                 |
\*---------------------------------------------------------------------------*/
FoamFile
{
    version     2.0;
    format      ascii;
    arch        "LSB;label=32;scalar=64";
    class       surfaceScalarField;
    location    "0.64";
    object      phi;
}
// * * * * * * * * * * * * * * * * * * * * * * * * * * * * * * * * * * * * * //

dimensions      [0 3 -1 0 0 0 0];

oriented        oriented;

internalField   nonuniform List<scalar> 
94400
(
7.3514e-06
2.6486e-06
5.10551e-06
2.24589e-06
3.71254e-06
1.39297e-06
2.84757e-06
8.6497e-07
2.29182e-06
5.55758e-07
1.91981e-06
3.72004e-07
1.65897e-06
2.60842e-07
1.46775e-06
1.91221e-07
1.32225e-06
1.45501e-07
1.20826e-06
1.13987e-07
1.11694e-06
9.13167e-08
1.04252e-06
7.442e-08
9.81067e-07
6.14574e-08
9.29791e-07
5.12765e-08
8.86667e-07
4.31244e-08
8.50176e-07
3.64907e-08
8.19158e-07
3.10179e-08
7.92709e-07
2.64489e-08
7.70114e-07
2.25945e-08
7.50802e-07
1.93128e-08
7.34307e-07
1.6495e-08
7.2025e-07
1.40568e-08
7.08318e-07
1.19317e-08
6.98252e-07
1.00665e-08
6.89834e-07
8.41791e-09
6.82884e-07
6.9503e-09
6.7725e-07
5.63392e-09
6.72806e-07
4.44351e-09
6.69449e-07
3.35717e-09
6.67093e-07
2.35552e-09
6.65672e-07
1.42096e-09
6.65135e-07
5.3699e-10
6.65448e-07
-3.12474e-10
6.66592e-07
-1.14384e-09
6.68566e-07
-1.97478e-09
6.71392e-07
-2.82551e-09
6.75113e-07
-3.72059e-09
6.79804e-07
-4.69175e-09
6.85587e-07
-5.78255e-09
6.92644e-07
-7.05696e-09
7.01259e-07
-8.61566e-09
7.1189e-07
-1.06301e-08
7.25308e-07
-1.34185e-08
7.42934e-07
-1.76263e-08
7.676e-07
-2.46656e-08
8.05378e-07
-3.77779e-08
8.70017e-07
-6.46388e-08
9.94542e-07
-1.24525e-07
1.26458e-06
-2.70043e-07
-6.37074e-07
1.90166e-06
1.01831e-05
2.46545e-06
9.21641e-06
3.21262e-06
7.94626e-06
2.66312e-06
6.79703e-06
2.01419e-06
5.86109e-06
1.4917e-06
5.12472e-06
1.10838e-06
4.5484e-06
8.37158e-07
4.09392e-06
6.45707e-07
3.73105e-06
5.08372e-07
3.43743e-06
4.076e-07
3.19686e-06
3.31889e-07
2.99757e-06
2.73715e-07
2.83092e-06
2.28102e-07
2.69051e-06
1.91694e-07
2.57145e-06
1.62178e-07
2.47002e-06
1.3792e-07
2.3833e-06
1.17744e-07
2.30896e-06
1.00785e-07
2.24516e-06
8.63958e-08
2.19039e-06
7.40822e-08
2.14342e-06
6.34628e-08
2.10324e-06
5.4238e-08
2.069e-06
4.61695e-08
2.04e-06
3.90648e-08
2.01566e-06
3.27665e-08
1.99546e-06
2.71441e-08
1.97901e-06
2.20876e-08
1.96595e-06
1.75028e-08
1.956e-06
1.33075e-08
1.94893e-06
9.42823e-09
1.94455e-06
5.79747e-09
1.94274e-06
2.35101e-09
1.9434e-06
-9.74816e-10
1.9465e-06
-4.24632e-09
1.95206e-06
-7.53649e-09
1.96017e-06
-1.09306e-08
1.97098e-06
-1.45342e-08
1.98478e-06
-1.84861e-08
2.00197e-06
-2.29787e-08
2.02321e-06
-2.82932e-08
2.04945e-06
-3.48621e-08
2.08221e-06
-4.33841e-08
2.12383e-06
-5.50447e-08
2.17816e-06
-7.19502e-08
2.25149e-06
-9.79978e-08
2.35429e-06
-1.40576e-07
2.5034e-06
-2.13749e-07
2.72322e-06
-3.44346e-07
3.03549e-06
-5.82316e-07
-9.95575e-07
3.39399e-06
1.05345e-05
1.93093e-06
1.04951e-05
3.25202e-06
9.90361e-06
3.25464e-06
9.09169e-06
2.82611e-06
8.26037e-06
2.32302e-06
7.49872e-06
1.87002e-06
6.83568e-06
1.5002e-06
6.27166e-06
1.20972e-06
5.79603e-06
9.84006e-07
5.39544e-06
8.08192e-07
5.05726e-06
6.70062e-07
4.77068e-06
5.60294e-07
4.5268e-06
4.71988e-07
4.3184e-06
4.00085e-07
4.13972e-06
3.40867e-07
3.98606e-06
2.91578e-07
3.85365e-06
2.50155e-07
3.7394e-06
2.15036e-07
3.64077e-06
1.85019e-07
3.55568e-06
1.59172e-07
3.48238e-06
1.36762e-07
3.41942e-06
1.17203e-07
3.36556e-06
1.00026e-07
3.31978e-06
8.48446e-08
3.28121e-06
7.1342e-08
3.2491e-06
5.92522e-08
3.22284e-06
4.8349e-08
3.2019e-06
3.84371e-08
3.18587e-06
2.93446e-08
3.17438e-06
2.09165e-08
3.16717e-06
1.3009e-08
3.16403e-06
5.48408e-09
3.16485e-06
-1.79654e-09
3.16959e-06
-8.9781e-09
3.17827e-06
-1.62217e-08
3.19106e-06
-2.37161e-08
3.20822e-06
-3.16952e-08
3.2302e-06
-4.04643e-08
3.25766e-06
-5.04406e-08
3.29159e-06
-6.22197e-08
3.33341e-06
-7.66848e-08
3.38521e-06
-9.51904e-08
3.45005e-06
-1.19877e-07
3.53231e-06
-1.54209e-07
3.63819e-06
-2.03881e-07
3.77587e-06
-2.78254e-07
3.95446e-06
-3.92345e-07
4.17917e-06
-5.69059e-07
4.43613e-06
-8.39272e-07
-1.22557e-06
4.66612e-06
1.04653e-05
1.46561e-06
1.07771e-05
2.94026e-06
1.06758e-05
3.35591e-06
1.02725e-05
3.22939e-06
9.71463e-06
2.88093e-06
9.108e-06
2.47665e-06
8.51515e-06
2.09306e-06
7.9669e-06
1.75797e-06
7.47487e-06
1.47604e-06
7.04039e-06
1.24267e-06
6.66001e-06
1.05045e-06
6.32836e-06
8.91942e-07
6.0397e-06
7.60651e-07
5.78856e-06
6.51226e-07
5.57003e-06
5.59394e-07
5.37983e-06
4.81776e-07
5.21428e-06
4.15713e-07
5.07021e-06
3.59105e-07
4.94494e-06
3.10287e-07
4.83618e-06
2.6793e-07
4.74198e-06
2.30963e-07
4.66067e-06
1.98516e-07
4.59082e-06
1.69877e-07
4.53121e-06
1.44455e-07
4.48079e-06
1.21756e-07
4.43869e-06
1.0136e-07
4.40413e-06
8.29077e-08
4.37648e-06
6.60847e-08
4.35521e-06
5.06113e-08
4.3399e-06
3.62332e-08
4.33019e-06
2.27125e-08
4.32586e-06
9.81865e-09
4.32674e-06
-2.68033e-09
4.33279e-06
-1.50294e-08
4.34407e-06
-2.75002e-08
4.36076e-06
-4.04098e-08
4.38322e-06
-5.41476e-08
4.41197e-06
-6.92132e-08
4.4478e-06
-8.62747e-08
4.49184e-06
-1.06256e-07
4.54563e-06
-1.30474e-07
4.61128e-06
-1.60843e-07
4.6916e-06
-2.00201e-07
4.79018e-06
-2.52784e-07
4.91119e-06
-3.24894e-07
5.05866e-06
-4.25721e-07
5.23428e-06
-5.67971e-07
5.43273e-06
-7.6751e-07
5.63326e-06
-1.03979e-06
-1.38675e-06
5.79445e-06
1.0342e-05
1.12359e-06
1.07373e-05
2.54503e-06
1.09003e-05
3.19284e-06
1.08068e-05
3.32292e-06
1.05226e-05
3.16516e-06
1.01251e-05
2.87415e-06
9.67673e-06
2.54137e-06
9.21983e-06
2.21487e-06
8.77954e-06
1.91633e-06
8.36916e-06
1.65305e-06
7.99442e-06
1.42518e-06
7.65664e-06
1.22972e-06
7.3547e-06
1.06259e-06
7.08627e-06
9.19653e-07
6.84854e-06
7.97129e-07
6.63857e-06
6.9174e-07
6.45356e-06
6.0072e-07
6.29091e-06
5.21764e-07
6.14823e-06
4.5296e-07
6.02344e-06
3.92728e-07
5.91464e-06
3.39756e-07
5.82021e-06
2.92951e-07
5.73869e-06
2.51399e-07
5.66882e-06
2.14325e-07
5.6095e-06
1.81072e-07
5.55979e-06
1.51074e-07
5.51886e-06
1.23836e-07
5.48602e-06
9.89227e-08
5.46069e-06
7.59421e-08
5.44239e-06
5.45333e-08
5.43075e-06
3.43556e-08
5.42549e-06
1.50773e-08
5.42644e-06
-3.63746e-09
5.43356e-06
-2.21435e-08
5.44689e-06
-4.08329e-08
5.46664e-06
-6.01596e-08
5.49317e-06
-8.06723e-08
5.52701e-06
-1.03062e-07
5.56897e-06
-1.28226e-07
5.62008e-06
-1.57368e-07
5.68173e-06
-1.92127e-07
5.75566e-06
-2.34776e-07
5.84394e-06
-2.8848e-07
5.94879e-06
-3.57629e-07
6.0721e-06
-4.48206e-07
6.21442e-06
-5.68038e-07
6.37301e-06
-7.26566e-07
6.53895e-06
-9.33448e-07
6.69393e-06
-1.19478e-06
-1.50494e-06
6.81211e-06
1.02416e-05
8.8195e-07
1.06171e-05
2.1696e-06
1.08951e-05
2.91479e-06
1.09957e-05
3.22238e-06
1.09248e-05
3.23599e-06
1.07228e-05
3.07614e-06
1.04357e-05
2.82856e-06
1.01024e-05
2.54811e-06
9.75201e-06
2.26673e-06
9.40386e-06
2.0012e-06
9.07001e-06
1.75903e-06
8.75727e-06
1.54246e-06
8.46894e-06
1.35092e-06
8.2061e-06
1.18249e-06
7.96846e-06
1.03477e-06
7.75496e-06
9.05241e-07
7.56413e-06
7.91554e-07
7.39431e-06
6.91578e-07
7.24384e-06
6.03436e-07
7.11107e-06
5.25499e-07
6.99446e-06
4.56361e-07
6.8926e-06
3.94812e-07
6.80419e-06
3.3981e-07
6.72806e-06
2.90453e-07
6.66318e-06
2.45957e-07
6.60862e-06
2.05634e-07
6.56358e-06
1.68874e-07
6.52737e-06
1.35133e-07
6.4994e-06
1.0391e-07
6.47919e-06
7.47441e-08
6.46635e-06
4.7193e-08
6.46061e-06
2.08237e-08
6.46177e-06
-4.80358e-09
6.46978e-06
-3.01529e-08
6.48468e-06
-5.57343e-08
6.50665e-06
-8.21313e-08
6.53602e-06
-1.10038e-07
6.57326e-06
-1.40307e-07
6.61906e-06
-1.74018e-07
6.67425e-06
-2.12564e-07
6.7399e-06
-2.57772e-07
6.81717e-06
-3.1205e-07
6.90726e-06
-3.78565e-07
7.01105e-06
-4.61424e-07
7.12863e-06
-5.65784e-07
7.25833e-06
-6.97743e-07
7.3955e-06
-8.63734e-07
7.53106e-06
-1.069e-06
7.651e-06
-1.31472e-06
-1.59352e-06
7.73959e-06
1.01727e-05
7.09202e-07
1.0498e-05
1.84435e-06
1.08084e-05
2.60442e-06
1.10139e-05
3.0169e-06
1.10882e-05
3.16167e-06
1.10418e-05
3.12254e-06
1.09008e-05
2.96958e-06
1.06941e-05
2.75472e-06
1.04476e-05
2.51326e-06
1.01814e-05
2.26743e-06
9.91021e-06
2.03021e-06
9.64418e-06
1.80849e-06
9.38982e-06
1.60528e-06
9.15104e-06
1.42128e-06
8.9299e-06
1.2559e-06
8.72724e-06
1.1079e-06
8.54307e-06
9.75726e-07
8.37689e-06
8.57761e-07
8.22789e-06
7.52433e-07
8.09511e-06
6.58278e-07
7.97751e-06
5.73959e-07
7.87405e-06
4.98274e-07
7.78371e-06
4.30149e-07
7.70554e-06
3.68627e-07
7.63865e-06
3.12851e-07
7.58223e-06
2.62054e-07
7.53556e-06
2.15543e-07
7.498e-06
1.72684e-07
7.46902e-06
1.32891e-07
7.44816e-06
9.56114e-08
7.43504e-06
6.03139e-08
7.42939e-06
2.6473e-08
7.43103e-06
-6.44625e-09
7.43988e-06
-3.90075e-08
7.45598e-06
-7.18256e-08
7.47944e-06
-1.05595e-07
7.51053e-06
-1.41128e-07
7.54962e-06
-1.79398e-07
7.5972e-06
-2.216e-07
7.65387e-06
-2.6923e-07
7.72026e-06
-3.24165e-07
7.79698e-06
-3.88773e-07
7.88442e-06
-4.66e-07
7.98243e-06
-5.59431e-07
8.08988e-06
-6.73235e-07
8.20402e-06
-8.11886e-07
8.31976e-06
-9.79476e-07
8.42921e-06
-1.17845e-06
8.52219e-06
-1.4077e-06
-1.66025e-06
8.58891e-06
1.01274e-05
5.81814e-07
1.04004e-05
1.57136e-06
1.07032e-05
2.30156e-06
1.09558e-05
2.76438e-06
1.1119e-05
2.99843e-06
1.11845e-05
3.057e-06
1.11619e-05
2.99224e-06
1.10685e-05
2.84809e-06
1.09236e-05
2.65815e-06
1.07447e-05
2.44634e-06
1.05462e-05
2.22869e-06
1.03394e-05
2.01536e-06
1.01323e-05
1.81231e-06
9.9309e-06
1.62272e-06
9.73889e-06
1.44791e-06
9.55874e-06
1.28806e-06
9.3918e-06
1.14266e-06
9.23871e-06
1.01085e-06
9.09957e-06
8.91571e-07
8.97416e-06
7.83691e-07
8.86202e-06
6.86098e-07
8.76258e-06
5.97718e-07
8.67518e-06
5.17547e-07
8.59916e-06
4.44647e-07
8.53386e-06
3.78155e-07
8.47864e-06
3.17273e-07
8.43292e-06
2.61263e-07
8.39617e-06
2.09434e-07
8.36792e-06
1.61139e-07
8.34777e-06
1.15757e-07
8.33541e-06
7.26827e-08
8.33056e-06
3.13153e-08
8.33308e-06
-8.9598e-09
8.34286e-06
-4.87886e-08
8.3599e-06
-8.88706e-08
8.38429e-06
-1.29986e-07
8.4162e-06
-1.7303e-07
8.45585e-06
-2.1905e-07
8.50355e-06
-2.69299e-07
8.5596e-06
-3.25287e-07
8.62428e-06
-3.88845e-07
8.69768e-06
-4.62173e-07
8.77956e-06
-5.47881e-07
8.86908e-06
-6.48951e-07
8.96446e-06
-7.68608e-07
9.06256e-06
-9.09986e-07
9.15861e-06
-1.07553e-06
9.24618e-06
-1.26603e-06
9.31797e-06
-1.47948e-06
-1.70994e-06
9.36766e-06
1.00972e-05
4.84623e-07
1.03247e-05
1.34385e-06
1.06037e-05
2.02255e-06
1.08693e-05
2.49875e-06
1.10812e-05
2.7866e-06
1.12211e-05
2.91706e-06
1.12871e-05
2.92622e-06
1.12868e-05
2.84841e-06
1.12322e-05
2.71276e-06
1.11365e-05
2.54208e-06
1.10119e-05
2.35329e-06
1.08689e-05
2.15827e-06
1.07162e-05
1.96504e-06
1.05603e-05
1.77867e-06
1.0406e-05
1.60218e-06
1.02569e-05
1.43714e-06
1.01154e-05
1.28414e-06
9.98312e-06
1.14317e-06
9.86091e-06
1.01378e-06
9.74927e-06
8.95328e-07
9.64835e-06
7.87022e-07
9.55804e-06
6.88022e-07
9.47812e-06
5.97475e-07
9.40822e-06
5.14541e-07
9.34797e-06
4.38409e-07
9.29694e-06
3.68303e-07
9.25472e-06
3.0348e-07
9.22093e-06
2.43231e-07
9.19519e-06
1.86873e-07
9.1772e-06
1.33744e-07
9.1667e-06
8.31882e-08
9.16346e-06
3.45492e-08
9.16735e-06
-1.28465e-08
9.17827e-06
-5.97054e-08
9.19619e-06
-1.06788e-07
9.22113e-06
-1.5493e-07
9.25317e-06
-2.05075e-07
9.29243e-06
-2.58303e-07
9.339e-06
-3.15867e-07
9.39294e-06
-3.79233e-07
9.45421e-06
-4.5011e-07
9.5225e-06
-5.30472e-07
9.59717e-06
-6.22543e-07
9.67694e-06
-7.28727e-07
9.75977e-06
-8.51437e-07
9.84258e-06
-9.92789e-07
9.92117e-06
-1.15412e-06
9.99047e-06
-1.33533e-06
1.00452e-05
-1.5342e-06
-1.74584e-06
1.00811e-05
1.00765e-05
4.08153e-07
1.02668e-05
1.15354e-06
1.05172e-05
1.7721e-06
1.07777e-05
2.2383e-06
1.10114e-05
2.55283e-06
1.11969e-05
2.73157e-06
1.13253e-05
2.79785e-06
1.13968e-05
2.77691e-06
1.14172e-05
2.69231e-06
1.13951e-05
2.5642e-06
1.13397e-05
2.4087e-06
1.12598e-05
2.23816e-06
1.11632e-05
2.06161e-06
1.10565e-05
1.88541e-06
1.09448e-05
1.71385e-06
1.08323e-05
1.54966e-06
1.0722e-05
1.39444e-06
1.06162e-05
1.24899e-06
1.05164e-05
1.11356e-06
1.04237e-05
9.87996e-07
1.03389e-05
8.71917e-07
1.02621e-05
7.64781e-07
1.01936e-05
6.65951e-07
1.01334e-05
5.74744e-07
1.00814e-05
4.90454e-07
1.00373e-05
4.1237e-07
1.0001e-05
3.39788e-07
9.97221e-06
2.72013e-07
9.95073e-06
2.0836e-07
9.93632e-06
1.48149e-07
9.92881e-06
9.07002e-08
9.92803e-06
3.53253e-08
9.93387e-06
-1.86854e-08
9.94624e-06
-7.20757e-08
9.96509e-06
-1.2564e-07
9.99041e-06
-1.80244e-07
1.00222e-05
-2.36845e-07
1.00604e-05
-2.96516e-07
1.0105e-05
-3.60472e-07
1.01559e-05
-4.30091e-07
1.02127e-05
-5.06921e-07
1.02749e-05
-5.92684e-07
1.03416e-05
-6.89229e-07
1.04113e-05
-7.98444e-07
1.04819e-05
-9.22096e-07
1.05507e-05
-1.06156e-06
1.06141e-05
-1.21747e-06
1.0668e-05
-1.38928e-06
1.07087e-05
-1.57484e-06
-1.77022e-06
1.0733e-05
1.00617e-05
3.46405e-07
1.02223e-05
9.93025e-07
1.04446e-05
1.54975e-06
1.06909e-05
1.992e-06
1.09301e-05
2.31369e-06
1.11405e-05
2.52115e-06
1.131e-05
2.62833e-06
1.14341e-05
2.65277e-06
1.15139e-05
2.61258e-06
1.15536e-05
2.5245e-06
1.15593e-05
2.40294e-06
1.15378e-05
2.25969e-06
1.14954e-05
2.10399e-06
1.1438e-05
1.9428e-06
1.13706e-05
1.78124e-06
1.12974e-05
1.62289e-06
1.12217e-05
1.47017e-06
1.11461e-05
1.32459e-06
1.10726e-05
1.18702e-06
1.10028e-05
1.05783e-06
1.09376e-05
9.37046e-07
1.0878e-05
8.24457e-07
1.08242e-05
7.19685e-07
1.07767e-05
6.22238e-07
1.07356e-05
5.31556e-07
1.0701e-05
4.47032e-07
1.06727e-05
3.68031e-07
1.06508e-05
2.93906e-07
1.06352e-05
2.23995e-07
1.06257e-05
1.57629e-07
1.06223e-05
9.4129e-08
1.06248e-05
3.27957e-08
1.06332e-05
-2.70924e-08
1.06474e-05
-8.62926e-08
1.06674e-05
-1.4561e-07
1.06931e-05
-2.0591e-07
1.07244e-05
-2.68139e-07
1.07612e-05
-3.33335e-07
1.08034e-05
-4.02644e-07
1.08506e-05
-4.77327e-07
1.09024e-05
-5.58761e-07
1.09582e-05
-6.48413e-07
1.10167e-05
-7.47794e-07
1.10767e-05
-8.58365e-07
1.11359e-05
-9.81392e-07
1.11921e-05
-1.11773e-06
1.12422e-05
-1.26759e-06
1.12832e-05
-1.43021e-06
1.1312e-05
-1.60367e-06
-1.78481e-06
1.13266e-05
1.00509e-05
2.9546e-07
1.01877e-05
8.563e-07
1.03845e-05
1.35294e-06
1.0613e-05
1.76347e-06
1.08478e-05
2.0789e-06
1.10691e-05
2.29983e-06
1.12638e-05
2.43368e-06
1.14246e-05
2.49198e-06
1.15491e-05
2.48802e-06
1.16385e-05
2.43508e-06
1.16961e-05
2.34542e-06
1.17261e-05
2.22964e-06
1.17335e-05
2.09656e-06
1.17231e-05
1.95325e-06
1.16992e-05
1.80517e-06
1.16656e-05
1.65644e-06
1.16258e-05
1.51004e-06
1.15823e-05
1.36805e-06
1.15375e-05
1.23186e-06
1.1493e-05
1.1023e-06
1.14502e-05
9.79796e-07
1.14102e-05
8.64453e-07
1.13738e-05
7.56162e-07
1.13413e-05
6.54645e-07
1.13134e-05
5.59506e-07
1.12902e-05
4.70268e-07
1.12718e-05
3.86392e-07
1.12584e-05
3.07298e-07
1.125e-05
2.32377e-07
1.12467e-05
1.60991e-07
1.12483e-05
9.24821e-08
1.12549e-05
2.61648e-08
1.12665e-05
-3.86739e-08
1.1283e-05
-1.02783e-07
1.13044e-05
-1.66956e-07
1.13305e-05
-2.32037e-07
1.13613e-05
-2.98938e-07
1.13966e-05
-3.68638e-07
1.14361e-05
-4.42197e-07
1.14796e-05
-5.2075e-07
1.15263e-05
-6.05496e-07
1.15756e-05
-6.97671e-07
1.16263e-05
-7.98493e-07
1.1677e-05
-9.09077e-07
1.17259e-05
-1.03031e-06
1.17709e-05
-1.16271e-06
1.18095e-05
-1.30622e-06
1.18393e-05
-1.46001e-06
1.18581e-05
-1.62243e-06
-1.79091e-06
1.18641e-05
1.00428e-05
2.52668e-07
1.01605e-05
7.38641e-07
1.03349e-05
1.17851e-06
1.05449e-05
1.55349e-06
1.077e-05
1.85376e-06
1.09931e-05
2.07672e-06
1.12013e-05
2.22548e-06
1.13862e-05
2.30711e-06
1.15433e-05
2.33094e-06
1.16712e-05
2.30713e-06
1.1771e-05
2.24564e-06
1.1845e-05
2.15563e-06
1.18964e-05
2.04512e-06
1.19289e-05
1.92083e-06
1.19458e-05
1.78823e-06
1.19506e-05
1.65166e-06
1.19462e-05
1.51443e-06
1.19352e-05
1.37901e-06
1.19199e-05
1.24718e-06
1.19021e-05
1.12014e-06
1.18832e-05
9.98646e-07
1.18646e-05
8.83113e-07
1.18471e-05
7.73677e-07
1.18314e-05
6.7027e-07
1.18183e-05
5.72671e-07
1.1808e-05
4.8054e-07
1.18009e-05
3.93449e-07
1.17973e-05
3.10905e-07
1.17973e-05
2.32365e-07
1.18011e-05
1.57242e-07
1.18087e-05
8.49179e-08
1.18201e-05
1.4739e-08
1.18354e-05
-5.39807e-08
1.18546e-05
-1.21963e-07
1.18776e-05
-1.89971e-07
1.19044e-05
-2.5881e-07
1.19348e-05
-3.29338e-07
1.19686e-05
-4.02465e-07
1.20055e-05
-4.79152e-07
1.20452e-05
-5.60405e-07
1.2087e-05
-6.47255e-07
1.213e-05
-7.40732e-07
1.21733e-05
-8.41807e-07
1.22156e-05
-9.51324e-07
1.22552e-05
-1.0699e-06
1.22903e-05
-1.1978e-06
1.23189e-05
-1.33484e-06
1.23391e-05
-1.48021e-06
1.23491e-05
-1.63248e-06
-1.78957e-06
1.23478e-05
1.00365e-05
2.16168e-07
1.01388e-05
6.36361e-07
1.02939e-05
1.02334e-06
1.04861e-05
1.36131e-06
1.06991e-05
1.64075e-06
1.09184e-05
1.85744e-06
1.11321e-05
2.01178e-06
1.13315e-05
2.10767e-06
1.15111e-05
2.15136e-06
1.16679e-05
2.15034e-06
1.18011e-05
2.11245e-06
1.19114e-05
2.04534e-06
1.20005e-05
1.95598e-06
1.20709e-05
1.85051e-06
1.21249e-05
1.73414e-06
1.21654e-05
1.61117e-06
1.21948e-05
1.48501e-06
1.22155e-05
1.35837e-06
1.22294e-05
1.23326e-06
1.22384e-05
1.11115e-06
1.2244e-05
9.93071e-07
1.22474e-05
8.79671e-07
1.22498e-05
7.7131e-07
1.22519e-05
6.68111e-07
1.22546e-05
5.70016e-07
1.22583e-05
4.76823e-07
1.22635e-05
3.88221e-07
1.22706e-05
3.03809e-07
1.22799e-05
2.23122e-07
1.22915e-05
1.45638e-07
1.23056e-05
7.07893e-08
1.23224e-05
-2.02995e-09
1.23419e-05
-7.3464e-08
1.23641e-05
-1.44193e-07
1.23891e-05
-2.14934e-07
1.24167e-05
-2.86441e-07
1.24469e-05
-3.59507e-07
1.24793e-05
-4.34961e-07
1.25139e-05
-5.13662e-07
1.25499e-05
-5.96491e-07
1.2587e-05
-6.84326e-07
1.26243e-05
-7.78016e-07
1.26608e-05
-8.7833e-07
1.26954e-05
-9.85902e-07
1.27266e-05
-1.10115e-06
1.2753e-05
-1.22418e-06
1.27729e-05
-1.35473e-06
1.27848e-05
-1.49205e-06
1.27872e-05
-1.63492e-06
-1.78163e-06
1.27793e-05
1.00316e-05
1.84608e-07
1.01214e-05
5.46565e-07
1.02601e-05
8.84578e-07
1.04359e-05
1.18553e-06
1.0636e-05
1.44068e-06
1.08482e-05
1.64523e-06
1.1062e-05
1.79794e-06
1.12691e-05
1.90057e-06
1.14634e-05
1.95706e-06
1.1641e-05
1.97275e-06
1.17998e-05
1.95364e-06
1.19393e-05
1.90589e-06
1.20598e-05
1.83542e-06
1.21627e-05
1.74761e-06
1.22496e-05
1.64724e-06
1.23224e-05
1.53837e-06
1.23831e-05
1.42437e-06
1.24335e-05
1.30798e-06
1.24754e-05
1.19134e-06
1.25105e-05
1.07608e-06
1.25401e-05
9.63413e-07
1.25656e-05
8.54167e-07
1.25881e-05
7.48875e-07
1.26083e-05
6.47822e-07
1.26273e-05
5.51092e-07
1.26455e-05
4.58611e-07
1.26635e-05
3.70176e-07
1.26819e-05
2.85483e-07
1.27008e-05
2.04145e-07
1.27208e-05
1.25712e-07
1.27419e-05
4.96776e-08
1.27643e-05
-2.45083e-08
1.27883e-05
-9.74372e-08
1.28139e-05
-1.69737e-07
1.2841e-05
-2.42067e-07
1.28697e-05
-3.15122e-07
1.28998e-05
-3.8962e-07
1.29311e-05
-4.66307e-07
1.29634e-05
-5.45941e-07
1.29962e-05
-6.29283e-07
1.3029e-05
-7.17074e-07
1.30609e-05
-8.10007e-07
1.30913e-05
-9.08689e-07
1.3119e-05
-1.01359e-06
1.31428e-05
-1.12498e-06
1.31615e-05
-1.24287e-06
1.31737e-05
-1.36696e-06
1.31783e-05
-1.49657e-06
1.3174e-05
-1.63066e-06
-1.76781e-06
1.31602e-05
1.00276e-05
1.56976e-07
1.01072e-05
4.66958e-07
1.02321e-05
7.59705e-07
1.03932e-05
1.02441e-06
1.05806e-05
1.25335e-06
1.07841e-05
1.4417e-06
1.09947e-05
1.58734e-06
1.12046e-05
1.69065e-06
1.14078e-05
1.75391e-06
1.15997e-05
1.78078e-06
1.17776e-05
1.77573e-06
1.19399e-05
1.74362e-06
1.2086e-05
1.68929e-06
1.22163e-05
1.61737e-06
1.23315e-05
1.53207e-06
1.24327e-05
1.4371e-06
1.25215e-05
1.33564e-06
1.25991e-05
1.23034e-06
1.26671e-05
1.12336e-06
1.27268e-05
1.01639e-06
1.27794e-05
9.10729e-07
1.28263e-05
8.07326e-07
1.28683e-05
7.06835e-07
1.29065e-05
6.09661e-07
1.29416e-05
5.16004e-07
1.29743e-05
4.25896e-07
1.30052e-05
3.39231e-07
1.30349e-05
2.55793e-07
1.30638e-05
1.75274e-07
1.30922e-05
9.72951e-08
1.31205e-05
2.14155e-08
1.31488e-05
-5.28546e-08
1.31774e-05
-1.26047e-07
1.32064e-05
-1.98729e-07
1.32359e-05
-2.715e-07
1.32657e-05
-3.44983e-07
1.32959e-05
-4.19824e-07
1.33263e-05
-4.9668e-07
1.33566e-05
-5.76212e-07
1.33864e-05
-6.59071e-07
1.34152e-05
-7.45876e-07
1.34423e-05
-8.3719e-07
1.34671e-05
-9.33484e-07
1.34887e-05
-1.0351e-06
1.35059e-05
-1.14221e-06
1.35178e-05
-1.25476e-06
1.35232e-05
-1.37243e-06
1.35213e-05
-1.49461e-06
1.3511e-05
-1.62042e-06
-1.74869e-06
1.34919e-05
1.00245e-05
1.32494e-07
1.00958e-05
3.95688e-07
1.02089e-05
6.46528e-07
1.03572e-05
8.76167e-07
1.05325e-05
1.07797e-06
1.07269e-05
1.24738e-06
1.09323e-05
1.38194e-06
1.11418e-05
1.48115e-06
1.13495e-05
1.54617e-06
1.15509e-05
1.5794e-06
1.17426e-05
1.58407e-06
1.19223e-05
1.56392e-06
1.20887e-05
1.52284e-06
1.22414e-05
1.46469e-06
1.23804e-05
1.39308e-06
1.25062e-05
1.3113e-06
1.26196e-05
1.22224e-06
1.27215e-05
1.12837e-06
1.28131e-05
1.03176e-06
1.28954e-05
9.34081e-07
1.29695e-05
8.36641e-07
1.30364e-05
7.40442e-07
1.3097e-05
6.46206e-07
1.31523e-05
5.54415e-07
1.32029e-05
4.65352e-07
1.32497e-05
3.7913e-07
1.32932e-05
2.95722e-07
1.3334e-05
2.14988e-07
1.33726e-05
1.36691e-07
1.34094e-05
6.05193e-08
1.34447e-05
-1.39033e-08
1.34788e-05
-8.70039e-08
1.35121e-05
-1.59252e-07
1.35445e-05
-2.31153e-07
1.35762e-05
-3.03238e-07
1.36073e-05
-3.76062e-07
1.36377e-05
-4.50192e-07
1.36672e-05
-5.26202e-07
1.36956e-05
-6.0466e-07
1.37227e-05
-6.86115e-07
1.37479e-05
-7.7108e-07
1.37707e-05
-8.60005e-07
1.37905e-05
-9.53255e-07
1.38064e-05
-1.05107e-06
1.38178e-05
-1.15355e-06
1.38236e-05
-1.26059e-06
1.3823e-05
-1.37188e-06
1.38153e-05
-1.48688e-06
1.37997e-05
-1.60483e-06
-1.72473e-06
1.37758e-05
1.00219e-05
1.10548e-07
1.00864e-05
3.31241e-07
1.01898e-05
5.43141e-07
1.03269e-05
7.39068e-07
1.04914e-05
9.13427e-07
1.06767e-05
1.06213e-06
1.08759e-05
1.18267e-06
1.1083e-05
1.2741e-06
1.12923e-05
1.33682e-06
1.14994e-05
1.37231e-06
1.17007e-05
1.38285e-06
1.18933e-05
1.37126e-06
1.20756e-05
1.3406e-06
1.22463e-05
1.29399e-06
1.24049e-05
1.23446e-06
1.25513e-05
1.16485e-06
1.26859e-05
1.08768e-06
1.28091e-05
1.0052e-06
1.29215e-05
9.19288e-07
1.30241e-05
8.3153e-07
1.31175e-05
7.43189e-07
1.32027e-05
6.55253e-07
1.32805e-05
5.68458e-07
1.33516e-05
4.83323e-07
1.34168e-05
4.00176e-07
1.34767e-05
3.19184e-07
1.3532e-05
2.40378e-07
1.35834e-05
1.63676e-07
1.36311e-05
8.89046e-08
1.36759e-05
1.58097e-08
1.37179e-05
-5.59237e-08
1.37575e-05
-1.26662e-07
1.37951e-05
-1.96815e-07
1.38308e-05
-2.66821e-07
1.38647e-05
-3.37148e-07
1.38969e-05
-4.08277e-07
1.39274e-05
-4.80703e-07
1.39561e-05
-5.54917e-07
1.39829e-05
-6.31401e-07
1.40074e-05
-7.10612e-07
1.40292e-05
-7.92967e-07
1.40481e-05
-8.78824e-07
1.40633e-05
-9.68455e-07
1.40742e-05
-1.06203e-06
1.40802e-05
-1.15957e-06
1.40806e-05
-1.26097e-06
1.40747e-05
-1.36593e-06
1.40617e-05
-1.47395e-06
1.40413e-05
-1.58437e-06
-1.69636e-06
1.40129e-05
1.00199e-05
9.0644e-08
1.00788e-05
2.72359e-07
1.0174e-05
4.47882e-07
1.03017e-05
6.11451e-07
1.04566e-05
7.58448e-07
1.06334e-05
8.85339e-07
1.08263e-05
9.89777e-07
1.10298e-05
1.07062e-06
1.12388e-05
1.1278e-06
1.1449e-05
1.16217e-06
1.16565e-05
1.17531e-06
1.18585e-05
1.16925e-06
1.20527e-05
1.14637e-06
1.22376e-05
1.10913e-06
1.2412e-05
1.06002e-06
1.25755e-05
1.00139e-06
1.27278e-05
9.35395e-07
1.2869e-05
8.63984e-07
1.29995e-05
7.8883e-07
1.31196e-05
7.1135e-07
1.32301e-05
6.32709e-07
1.33315e-05
5.53831e-07
1.34246e-05
4.75421e-07
1.35099e-05
3.9799e-07
1.35882e-05
3.21881e-07
1.36601e-05
2.47284e-07
1.37262e-05
1.74267e-07
1.37871e-05
1.0279e-07
1.38433e-05
3.27246e-08
1.38952e-05
-3.61316e-08
1.39433e-05
-1.0404e-07
1.3988e-05
-1.71312e-07
1.40295e-05
-2.38297e-07
1.4068e-05
-3.05373e-07
1.41038e-05
-3.72943e-07
1.4137e-05
-4.4142e-07
1.41675e-05
-5.11224e-07
1.41953e-05
-5.82771e-07
1.42204e-05
-6.56463e-07
1.42425e-05
-7.32673e-07
1.42612e-05
-8.11736e-07
1.42763e-05
-8.93926e-07
1.42873e-05
-9.79445e-07
1.42937e-05
-1.06839e-06
1.42949e-05
-1.16077e-06
1.42903e-05
-1.25642e-06
1.42795e-05
-1.35506e-06
1.42618e-05
-1.45627e-06
1.42369e-05
-1.55945e-06
-1.6639e-06
1.42044e-05
1.00183e-05
7.23719e-08
1.00727e-05
2.17974e-07
1.01613e-05
3.59283e-07
1.02809e-05
4.91762e-07
1.04277e-05
6.11691e-07
1.05969e-05
7.16125e-07
1.07837e-05
8.02999e-07
1.09832e-05
8.71155e-07
1.11907e-05
9.20288e-07
1.1402e-05
9.50831e-07
1.16135e-05
9.63815e-07
1.1822e-05
9.60711e-07
1.20251e-05
9.43281e-07
1.22208e-05
9.1344e-07
1.24077e-05
8.73142e-07
1.25848e-05
8.24287e-07
1.27515e-05
7.68655e-07
1.29077e-05
7.07863e-07
1.30532e-05
6.43332e-07
1.31882e-05
5.76282e-07
1.33132e-05
5.07727e-07
1.34285e-05
4.38485e-07
1.35348e-05
3.69191e-07
1.36325e-05
3.00313e-07
1.37222e-05
2.32173e-07
1.38045e-05
1.64962e-07
1.388e-05
9.87578e-08
1.39492e-05
3.35461e-08
1.40127e-05
-3.07694e-08
1.4071e-05
-9.43511e-08
1.41243e-05
-1.57416e-07
1.41732e-05
-2.20224e-07
1.4218e-05
-2.83072e-07
1.42589e-05
-3.4628e-07
1.42962e-05
-4.10187e-07
1.43299e-05
-4.75144e-07
1.43602e-05
-5.415e-07
1.4387e-05
-6.096e-07
1.44103e-05
-6.79772e-07
1.44299e-05
-7.52315e-07
1.44457e-05
-8.27489e-07
1.44573e-05
-9.05499e-07
1.44643e-05
-9.86483e-07
1.44664e-05
-1.07049e-06
1.44631e-05
-1.15749e-06
1.4454e-05
-1.24731e-06
1.44386e-05
-1.33969e-06
1.44166e-05
-1.43422e-06
1.43876e-05
-1.53041e-06
-1.62762e-06
1.43513e-05
1.0017e-05
5.53859e-08
1.00678e-05
1.67161e-07
1.0151e-05
2.76037e-07
1.02643e-05
3.78545e-07
1.04042e-05
4.71791e-07
1.05669e-05
5.53427e-07
1.07481e-05
6.2174e-07
1.09436e-05
6.75686e-07
1.1149e-05
7.14866e-07
1.13604e-05
7.39451e-07
1.15741e-05
7.50094e-07
1.1787e-05
7.4781e-07
1.19964e-05
7.33873e-07
1.22002e-05
7.09706e-07
1.23965e-05
6.76792e-07
1.25842e-05
6.36599e-07
1.27623e-05
5.90523e-07
1.29303e-05
5.39847e-07
1.3088e-05
4.85714e-07
1.32351e-05
4.29114e-07
1.3372e-05
3.70879e-07
1.34988e-05
3.11685e-07
1.36159e-05
2.52064e-07
1.37238e-05
1.9241e-07
1.3823e-05
1.32997e-07
1.3914e-05
7.39904e-08
1.39973e-05
1.54616e-08
1.40734e-05
-4.25981e-08
1.41429e-05
-1.00266e-07
1.42062e-05
-1.57675e-07
1.42638e-05
-2.15007e-07
1.43161e-05
-2.72479e-07
1.43633e-05
-3.30338e-07
1.44059e-05
-3.88852e-07
1.4444e-05
-4.48301e-07
1.44778e-05
-5.08975e-07
1.45075e-05
-5.7116e-07
1.4533e-05
-6.35133e-07
1.45544e-05
-7.01155e-07
1.45716e-05
-7.69458e-07
1.45843e-05
-8.40236e-07
1.45924e-05
-9.13633e-07
1.45957e-05
-9.89734e-07
1.45938e-05
-1.06855e-06
1.45863e-05
-1.15001e-06
1.45729e-05
-1.23394e-06
1.45533e-05
-1.32009e-06
1.45272e-05
-1.40809e-06
1.44943e-05
-1.49749e-06
-1.58775e-06
1.44544e-05
1.0016e-05
3.93861e-08
1.00641e-05
1.19107e-07
1.01431e-05
1.96962e-07
1.02512e-05
2.70432e-07
1.03856e-05
3.37389e-07
1.0543e-05
3.96077e-07
1.07196e-05
4.45174e-07
1.09114e-05
4.83833e-07
1.11146e-05
5.11663e-07
1.13254e-05
5.28694e-07
1.15402e-05
5.35311e-07
1.17558e-05
5.3218e-07
1.19695e-05
5.20169e-07
1.21789e-05
5.00275e-07
1.23822e-05
4.73554e-07
1.25777e-05
4.41068e-07
1.27644e-05
4.03836e-07
1.29414e-05
3.62804e-07
1.31083e-05
3.18822e-07
1.32648e-05
2.72629e-07
1.34108e-05
2.24851e-07
1.35465e-05
1.75997e-07
1.36721e-05
1.26468e-07
1.3788e-05
7.65596e-08
1.38945e-05
2.6476e-08
1.39921e-05
-2.36635e-08
1.40814e-05
-7.38125e-08
1.41628e-05
-1.23988e-07
1.42368e-05
-1.74261e-07
1.43039e-05
-2.24747e-07
1.43645e-05
-2.75598e-07
1.4419e-05
-3.26995e-07
1.44678e-05
-3.79143e-07
1.45112e-05
-4.32261e-07
1.45495e-05
-4.86577e-07
1.45828e-05
-5.42322e-07
1.46114e-05
-5.99723e-07
1.46352e-05
-6.58998e-07
1.46544e-05
-7.20343e-07
1.46689e-05
-7.83931e-07
1.46786e-05
-8.49897e-07
1.46833e-05
-9.18332e-07
1.46828e-05
-9.89274e-07
1.46769e-05
-1.0627e-06
1.46654e-05
-1.13851e-06
1.4648e-05
-1.21652e-06
1.46244e-05
-1.2965e-06
1.45944e-05
-1.3781e-06
1.45579e-05
-1.46091e-06
-1.54446e-06
1.45146e-05
1.00153e-05
2.41057e-08
1.00613e-05
7.30767e-08
1.01373e-05
1.20968e-07
1.02416e-05
1.66127e-07
1.03719e-05
2.07145e-07
1.05251e-05
2.42845e-07
1.06979e-05
2.72323e-07
1.08868e-05
2.94975e-07
1.1088e-05
3.10493e-07
1.12978e-05
3.18844e-07
1.15129e-05
3.20227e-07
1.173e-05
3.15032e-07
1.19464e-05
3.0379e-07
1.21596e-05
2.87119e-07
1.23675e-05
2.65687e-07
1.25683e-05
2.40171e-07
1.2761e-05
2.11224e-07
1.29443e-05
1.79456e-07
1.31177e-05
1.45414e-07
1.32808e-05
1.09576e-07
1.34333e-05
7.23438e-08
1.35752e-05
3.40406e-08
1.37068e-05
-5.08314e-09
1.38282e-05
-4.48474e-08
1.39398e-05
-8.51363e-08
1.4042e-05
-1.25892e-07
1.41353e-05
-1.67107e-07
1.42202e-05
-2.08819e-07
1.4297e-05
-2.51102e-07
1.43663e-05
-2.94062e-07
1.44285e-05
-3.3783e-07
1.44841e-05
-3.82558e-07
1.45334e-05
-4.28412e-07
1.45767e-05
-4.75566e-07
1.46143e-05
-5.242e-07
1.46465e-05
-5.74494e-07
1.46734e-05
-6.2662e-07
1.46951e-05
-6.80736e-07
1.47118e-05
-7.36986e-07
1.47233e-05
-7.95484e-07
1.47297e-05
-8.56315e-07
1.47309e-05
-9.19522e-07
1.47267e-05
-9.85102e-07
1.4717e-05
-1.053e-06
1.47016e-05
-1.12309e-06
1.46803e-05
-1.1952e-06
1.46529e-05
-1.26908e-06
1.46192e-05
-1.34442e-06
1.45791e-05
-1.42083e-06
-1.4979e-06
1.45326e-05
1.00148e-05
9.30105e-09
1.00595e-05
2.83902e-08
1.01334e-05
4.70326e-08
1.02352e-05
6.43875e-08
1.03626e-05
7.97353e-08
1.0513e-05
9.24674e-08
1.06832e-05
1.02109e-07
1.08698e-05
1.0833e-07
1.10694e-05
1.10949e-07
1.12783e-05
1.09917e-07
1.14932e-05
1.05303e-07
1.1711e-05
9.72696e-08
1.19287e-05
8.60499e-08
1.21439e-05
7.19232e-08
1.23544e-05
5.5193e-08
1.25584e-05
3.61671e-08
1.27545e-05
1.51429e-08
1.29415e-05
-7.60526e-09
1.31188e-05
-3.18343e-08
1.32857e-05
-5.73378e-08
1.3442e-05
-8.39487e-08
1.35876e-05
-1.1154e-07
1.37225e-05
-1.40024e-07
1.3847e-05
-1.6935e-07
1.39614e-05
-1.995e-07
1.4066e-05
-2.3049e-07
1.41612e-05
-2.62361e-07
1.42476e-05
-2.95178e-07
1.43255e-05
-3.29028e-07
1.43955e-05
-3.64012e-07
1.44579e-05
-4.00246e-07
1.45132e-05
-4.37857e-07
1.45618e-05
-4.76976e-07
1.46039e-05
-5.17738e-07
1.464e-05
-5.60279e-07
1.46702e-05
-6.04728e-07
1.46948e-05
-6.51208e-07
1.47139e-05
-6.99825e-07
1.47276e-05
-7.50669e-07
1.47359e-05
-8.03807e-07
1.47389e-05
-8.59274e-07
1.47364e-05
-9.17072e-07
1.47285e-05
-9.77161e-07
1.47149e-05
-1.03946e-06
1.46957e-05
-1.10382e-06
1.46705e-05
-1.17006e-06
1.46394e-05
-1.23795e-06
1.46022e-05
-1.30717e-06
1.45587e-05
-1.37738e-06
-1.4482e-06
1.4509e-05
1.00146e-05
-5.25732e-09
1.00585e-05
-1.55964e-08
1.01314e-05