/*--------------------------------*- C++ -*----------------------------------*\
| =========                 |                                                 |
| \\      /  F ield         | OpenFOAM: The Open Source CFD Toolbox           |
|  \\    /   O peration     | Version:  2306                                  |
|   \\  /    A nd           | Website:  www.openfoam.com                      |
|    \\/     M anipulation  |                                                 |
\*---------------------------------------------------------------------------*/
FoamFile
{
    version     2.0;
    format      ascii;
    arch        "LSB;label=32;scalar=64";
    class       surfaceScalarField;
    location    "0.64";
    object      phi;
}
// * * * * * * * * * * * * * * * * * * * * * * * * * * * * * * * * * * * * * //

dimensions      [0 3 -1 0 0 0 0];

oriented        oriented;

internalField   nonuniform List<scalar> 
890
(
8.50913e-05
1.49087e-05
7.26699e-05
1.24214e-05
6.71595e-05
5.51044e-06
6.78794e-05
-7.19958e-07
-9.59009e-06
7.74695e-05
0.0001097
5.20867e-06
0.000117543
4.57874e-06
0.000122405
6.48558e-07
0.000126113
-4.42836e-06
-1.13754e-05
0.000127898
0.00011182
-6.61126e-06
0.000124952
-8.5534e-06
0.000133372
-7.77168e-06
0.000137101
-8.15734e-06
-1.04697e-05
0.000136196
0.000109059
-1.56698e-05
0.000115017
-1.4512e-05
0.000116578
-9.33298e-06
0.000114866
-6.44495e-06
-5.61202e-06
0.000110008
8.43302e-05
6.98182e-05
6.04852e-05
5.40403e-05
4.84283e-05
-1.60548e-06
1.60548e-06
-2.47505e-06
8.69569e-07
-1.75146e-06
-7.23589e-07
2.37126e-07
-1.98858e-06
2.90031e-06
-2.66319e-06
5.7306e-06
-2.83029e-06
8.35945e-06
-2.62885e-06
1.05827e-05
-2.22322e-06
1.23271e-05
-1.74446e-06
1.36058e-05
-1.27872e-06
1.44794e-05
-8.73523e-07
1.50274e-05
-5.48054e-07
1.53307e-05
-3.03307e-07
1.5461e-05
-1.30307e-07
1.5477e-05
-1.59206e-08
1.54234e-05
5.355e-08
1.53328e-05
9.05804e-08
1.52276e-05
1.05263e-07
1.51221e-05
1.05469e-07
1.5025e-05
9.70849e-08
1.49407e-05
8.42801e-08
1.48709e-05
6.98619e-08
1.48153e-05
5.56192e-08
1.47726e-05
4.26025e-08
1.47413e-05
3.13443e-08
1.47193e-05
2.20284e-08
1.47047e-05
1.46161e-08
1.46957e-05
8.93782e-09
1.4691e-05
4.75776e-09
1.46891e-05
1.81751e-09
1.46893e-05
-1.35678e-10
1.46906e-05
-1.3316e-09
1.46926e-05
-1.97222e-09
1.46948e-05
-2.22066e-09
1.4697e-05
-2.2077e-09
1.4699e-05
-2.0348e-09
1.47008e-05
-1.77707e-09
1.47023e-05
-1.48759e-09
1.47035e-05
-1.20199e-09
1.47045e-05
-9.42841e-10
1.47052e-05
-7.23686e-10
1.47057e-05
-5.52861e-10
1.47062e-05
-4.37679e-10
1.47066e-05
-3.94183e-10
-4.48604e-10
-1.91012e-06
3.51559e-06
-1.45042e-06
4.09867e-07
1.66408e-06
-3.83809e-06
6.60143e-06
-6.92593e-06
1.23983e-05
-8.46002e-06
1.824e-05
-8.67205e-06
2.35907e-05
-7.97952e-06
2.81568e-05
-6.78931e-06
3.18309e-05
-5.41858e-06
3.46318e-05
-4.07963e-06
3.66529e-05
-2.89463e-06
3.80232e-05
-1.91832e-06
3.888e-05
-1.16014e-06
3.93524e-05
-6.02704e-07
3.9552e-05
-2.1545e-07
3.95696e-05
3.59559e-08
3.9475e-05
1.85148e-07
3.93198e-05
2.60452e-07
3.91401e-05
2.85134e-07
3.89598e-05
2.77456e-07
3.87931e-05
2.5094e-07
3.86478e-05
2.15164e-07
3.85268e-05
1.76599e-07
3.84301e-05
1.39352e-07
3.83556e-05
1.05797e-07
3.83006e-05
7.70833e-08
3.82616e-05
5.35378e-08
3.82356e-05
3.49623e-08
3.82195e-05
2.08567e-08
3.82108e-05
1.0574e-08
3.82072e-05
3.42584e-09
3.82071e-05
-1.24173e-09
3.82092e-05
-4.04084e-09
3.82124e-05
-5.46739e-09
3.82162e-05
-5.93919e-09
3.82199e-05
-5.78752e-09
3.82234e-05
-5.26507e-09
3.82265e-05
-4.55669e-09
3.82291e-05
-3.79192e-09
3.82312e-05
-3.05706e-09
3.82329e-05
-2.40649e-09
3.82342e-05
-1.87294e-09
3.82352e-05
-1.47563e-09
3.8236e-05
-1.22927e-09
-1.15886e-09
5.10027e-09
3.51049e-06
3.86228e-06
-3.44731e-06
1.04089e-05
-1.03847e-05
1.80364e-05
-1.45535e-05
2.56837e-05
-1.61073e-05
3.27457e-05
-1.5734e-05
3.89013e-05
-1.41351e-05
4.40224e-05
-1.19104e-05
4.81086e-05
-9.50484e-06
5.1239e-05
-7.21003e-06
5.35356e-05
-5.19124e-06
5.51383e-05
-3.52096e-06
5.61873e-05
-2.20917e-06
5.68127e-05
-1.22813e-06
5.71281e-05
-5.30806e-07
5.72281e-05
-6.41131e-08
5.71868e-05
2.26489e-07
5.70617e-05
3.85537e-07
5.68947e-05
4.52144e-07
5.67147e-05
4.57469e-07
5.65405e-05
4.25188e-07
5.63831e-05
3.72562e-07
5.6248e-05
3.11631e-07
5.6137e-05
2.50339e-07
5.60493e-05
1.93543e-07
5.59825e-05
1.43853e-07
5.59337e-05
1.02317e-07
5.58997e-05
6.89553e-08
5.58774e-05
4.31577e-08
5.5864e-05
2.39756e-08
5.58571e-05
1.03241e-08
5.58548e-05
1.12723e-09
5.58554e-05
-4.65901e-09
5.58578e-05
-7.88302e-09
5.58612e-05
-9.28369e-09
5.58648e-05
-9.45651e-09
5.58684e-05
-8.86305e-09
5.58717e-05
-7.8474e-09
5.58746e-05
-6.65599e-09
5.5877e-05
-5.45732e-09
5.58789e-05
-4.36028e-09
5.58805e-05
-3.43076e-09
5.58817e-05
-2.70456e-09
5.58827e-05
-2.19492e-09
-1.92354e-09
5.9288e-06
-2.41831e-06
1.55384e-05
-1.30569e-05
2.58963e-05
-2.07426e-05
3.52479e-05
-2.39051e-05
4.31531e-05
-2.40125e-05
4.96171e-05
-2.21981e-05
5.47792e-05
-1.92972e-05
5.88149e-05
-1.59461e-05
6.19023e-05
-1.25922e-05
6.42073e-05
-9.51503e-06
6.58781e-05
-6.86202e-06
6.70437e-05
-4.68657e-06
6.7815e-05
-2.98048e-06
6.82861e-05
-1.69921e-06
6.85356e-05
-7.80377e-07
6.86286e-05
-1.5711e-07
6.86155e-05
2.39632e-07
6.85366e-05
4.64392e-07
6.84224e-05
5.66356e-07
6.82944e-05
5.85534e-07
6.8167e-05
5.52546e-07
6.80494e-05
4.90115e-07
6.79467e-05
4.14397e-07
6.78607e-05
3.363e-07
6.77916e-05
2.62685e-07
6.7738e-05
1.97416e-07
6.76981e-05
1.42233e-07
6.76696e-05
9.74414e-08
6.76503e-05
6.24422e-08
6.76382e-05
3.61271e-08
6.76313e-05
1.71585e-08
6.76283e-05
4.16887e-09
6.76278e-05
-4.19398e-09
6.7629e-05
-9.05141e-09
6.76311e-05
-1.13678e-08
6.76336e-05
-1.19511e-08
6.76361e-05
-1.14267e-08
6.76386e-05
-1.02659e-08
6.76407e-05
-8.81054e-09
6.76426e-05
-7.29734e-09
6.76441e-05
-5.88165e-09
6.76453e-05
-4.6583e-09
6.76463e-05
-3.67867e-09
6.7647e-05
-2.95921e-09
-2.51819e-09
2.23063e-05
-2.47246e-05
3.92439e-05
-2.99945e-05
5.06961e-05
-3.21948e-05
5.86463e-05
-3.18553e-05
6.40585e-05
-2.94247e-05
6.76558e-05
-2.57954e-05
7.0006e-05
-2.16474e-05
7.152e-05
-1.74601e-05
7.24849e-05
-1.35571e-05
7.30954e-05
-1.01255e-05
7.34789e-05
-7.24544e-06
7.37154e-05
-4.92315e-06
7.38547e-05
-3.11972e-06
7.39273e-05
-1.77187e-06
7.39535e-05
-8.06556e-07
7.39476e-05
-1.51191e-07
7.39192e-05
2.68006e-07
7.38773e-05
5.06327e-07
7.38285e-05
6.15197e-07
7.37778e-05
6.36209e-07
7.3729e-05
6.01366e-07
7.36844e-05
5.34632e-07
7.36456e-05
4.53211e-07
7.36131e-05
3.68841e-07
7.35868e-05
2.88992e-07
7.35663e-05
2.17938e-07
7.35508e-05
1.57658e-07
7.35397e-05
1.08567e-07
7.35321e-05
7.00795e-08
7.35272e-05
4.10379e-08
7.35243e-05
2.00179e-08
7.35229e-05
5.54827e-09
7.35226e-05
-3.82926e-09
7.35229e-05
-9.34934e-09
7.35235e-05
-1.20473e-08
7.35244e-05
-1.28156e-08
7.35253e-05
-1.23414e-08
7.35262e-05
-1.11446e-08
7.3527e-05
-9.60352e-09
7.35277e-05
-7.98148e-09
7.35282e-05
-6.45203e-09
7.35287e-05
-5.12149e-09
7.35291e-05
-4.04772e-09
7.35294e-05
-3.24937e-09
-2.74266e-09
7.97963e-05
-2.70514e-05
8.32627e-05
-3.34609e-05
8.50582e-05
-3.39903e-05
8.53042e-05
-3.21012e-05
8.44811e-05
-2.86015e-05
8.29856e-05
-2.43e-05
8.11877e-05
-1.98495e-05
7.93798e-05
-1.56522e-05
7.77483e-05
-1.19255e-05
7.63859e-05
-8.76322e-06
7.53183e-05
-6.17783e-06
7.45282e-05
-4.13307e-06
7.39761e-05
-2.56757e-06
7.36142e-05
-1.41001e-06
7.33959e-05
-5.88182e-07
7.3281e-05
-3.63502e-08
7.32352e-05
3.1386e-07
7.32341e-05
5.07372e-07
7.32588e-05
5.90498e-07
7.32964e-05
5.98679e-07
7.33382e-05
5.59535e-07
7.3379e-05
4.93792e-07
7.34159e-05
4.16349e-07
7.34474e-05
3.3737e-07
7.3473e-05
2.63302e-07
7.34932e-05
1.97792e-07
7.35084e-05
1.42472e-07
7.35193e-05
9.75953e-08
7.35269e-05
6.25405e-08
7.35317e-05
3.6188e-08
7.35346e-05
1.71945e-08
7.35359e-05
4.18888e-09
7.35363e-05
-4.18368e-09
7.3536e-05
-9.04678e-09
7.35353e-05
-1.13661e-08
7.35344e-05
-1.19507e-08
7.35335e-05
-1.14268e-08
7.35326e-05
-1.02662e-08
7.35318e-05
-8.81072e-09
7.35312e-05
-7.29743e-09
7.35306e-05
-5.88167e-09
7.35301e-05
-4.65827e-09
7.35298e-05
-3.67861e-09
7.35295e-05
-2.95915e-09
-2.51814e-09
0.000122526
-2.16787e-05
0.000115897
-2.68325e-05
0.000108971
-2.7064e-05
0.00010184
-2.49706e-05
9.49685e-05
-2.17298e-05
8.87041e-05
-1.80356e-05
8.32505e-05
-1.4396e-05
7.87042e-05
-1.11059e-05
7.50679e-05
-8.28922e-06
7.2274e-05
-5.96935e-06
7.02137e-05
-4.11753e-06
6.87616e-05
-2.68094e-06
6.77926e-05
-1.59865e-06
6.71927e-05
-8.10047e-07
6.68634e-05
-2.58882e-07
6.67221e-05
1.04895e-07
6.67089e-05
3.27079e-07
6.67732e-05
4.43037e-07
6.68799e-05
4.83857e-07
6.70041e-05
4.7445e-07
6.71295e-05
4.34103e-07
6.72461e-05
3.77226e-07
6.73483e-05
3.1412e-07
6.7434e-05
2.51729e-07
6.75029e-05
1.94367e-07
6.75563e-05
1.44369e-07
6.75962e-05
1.02651e-07
6.76246e-05
6.91723e-08
6.76438e-05
4.32959e-08
6.7656e-05
2.40602e-08
6.76628e-05
1.03732e-08
6.76658e-05
1.15371e-09
6.76663e-05
-4.64598e-09
6.76651e-05
-7.87753e-09
6.7663e-05
-9.28196e-09
6.76605e-05
-9.45639e-09
6.7658e-05
-8.86344e-09
6.76555e-05
-7.8478e-09
6.76534e-05
-6.65626e-09
6.76516e-05
-5.45742e-09
6.765e-05
-4.36027e-09
6.76488e-05
-3.43069e-09
6.76478e-05
-2.70446e-09
6.76471e-05
-2.19482e-09
-1.92345e-09
0.000129041
-1.45241e-05
0.000118859
-1.66506e-05
0.000107974
-1.61791e-05
9.73693e-05
-1.43656e-05
8.77152e-05
-1.20757e-05
7.94047e-05
-9.72506e-06
7.25614e-05
-7.5526e-06
6.71347e-05
-5.67923e-06
6.298e-05
-4.13446e-06
5.99097e-05
-2.89907e-06
5.77278e-05
-1.93563e-06
5.62494e-05
-1.20258e-06
5.53109e-05
-6.60151e-07
5.47734e-05
-2.72492e-07
5.45219e-05
-7.44599e-09
5.44663e-05
1.60496e-07
5.45365e-05
2.56873e-07
5.46795e-05
3.00077e-07
5.48571e-05
3.06273e-07
5.50431e-05
2.88441e-07
5.52206e-05
2.56586e-07
5.53797e-05
2.18106e-07
5.55156e-05
1.78202e-07
5.56271e-05
1.40288e-07
5.57151e-05
1.06383e-07
5.5782e-05
7.74685e-08
5.58308e-05
5.37938e-08
5.58649e-05
3.51296e-08
5.58872e-05
2.09619e-08
5.59006e-05
1.06367e-08
5.59075e-05
3.46075e-09
5.59099e-05
-1.22405e-09
5.59093e-05
-4.03295e-09
5.59069e-05
-5.46464e-09
5.59036e-05
-5.93877e-09
5.58999e-05
-5.78793e-09
5.58963e-05
-5.26559e-09
5.5893e-05
-4.55707e-09
5.58901e-05
-3.7921e-09
5.58877e-05
-3.05709e-09
5.58858e-05
-2.40644e-09
5.58842e-05
-1.87284e-09
5.5883e-05
-1.47553e-09
5.5882e-05
-1.22918e-09
-1.15878e-09
0.000101482
-5.9976e-06
9.09182e-05
-6.08709e-06
8.02128e-05
-5.47373e-06
7.0395e-05
-4.54775e-06
6.1935e-05
-3.61567e-06
5.49912e-05
-2.78127e-06
4.95141e-05
-2.07554e-06
4.53386e-05
-1.5037e-06
4.22576e-05
-1.0535e-06
4.00643e-05
-7.05724e-07
3.85704e-05
-4.41717e-07
3.76133e-05
-2.45548e-07
3.70572e-05
-1.03956e-07
3.67907e-05
-6.04928e-09
3.67254e-05
5.78626e-08
3.67907e-05
9.51654e-08
3.69346e-05
1.13001e-07
3.71179e-05
1.16817e-07
3.73129e-05
1.11206e-07
3.75015e-05
9.98815e-08
3.76724e-05
8.56654e-08
3.78199e-05
7.0596e-08
3.79421e-05
5.60536e-08
3.80395e-05
4.28888e-08
3.81143e-05
3.15445e-08
3.81696e-05
2.21692e-08
3.82087e-05
1.47122e-08
3.82348e-05
9.00009e-09
3.8251e-05
4.79555e-09
3.82598e-05
1.83868e-09
3.82634e-05
-1.24975e-10
3.82635e-05
-1.32697e-09
3.82614e-05
-1.97073e-09
3.82582e-05
-2.22059e-09
3.82544e-05
-2.2081e-09
3.82507e-05
-2.03523e-09
3.82472e-05
-1.77737e-09
3.82441e-05
-1.48774e-09
3.82415e-05
-1.20203e-09
3.82394e-05
-9.42819e-10
3.82377e-05
-7.23633e-10
3.82364e-05
-5.528e-10
3.82354e-05
-4.37622e-10
3.82345e-05
-3.94136e-10
-4.48564e-10
4.24307e-05
3.63436e-05
3.08698e-05
2.63221e-05
2.27064e-05
1.99251e-05
1.78496e-05
1.63459e-05
1.52924e-05
1.45867e-05
1.4145e-05
1.38994e-05
1.37955e-05
1.37894e-05
1.38473e-05
1.39424e-05
1.40554e-05
1.41722e-05
1.42835e-05
1.43833e-05
1.4469e-05
1.45396e-05
1.45957e-05
1.46385e-05
1.46701e-05
1.46923e-05
1.4707e-05
1.4716e-05
1.47208e-05
1.47226e-05
1.47225e-05
1.47211e-05
1.47192e-05
1.4717e-05
1.47148e-05
1.47127e-05
1.47109e-05
1.47094e-05
1.47082e-05
1.47073e-05
1.47066e-05
1.4706e-05
1.47056e-05
1.47052e-05
)
;

boundaryField
{
    fixedWalls
    {
        type            calculated;
        value           uniform 0;
    }
    inflowWall
    {
        type            calculated;
        value           nonuniform List<scalar> 5(-0.0001 -0.0001 -0.0001 -0.0001 -0.0001);
    }
    outflowWall
    {
        type            calculated;
        value           nonuniform List<scalar> 10(1.4707e-05 3.82368e-05 5.58834e-05 6.76476e-05 7.35296e-05 7.35292e-05 6.76465e-05 5.58813e-05 3.82338e-05 1.47047e-05);
    }
    frontAndBack
    {
        type            empty;
        value           nonuniform List<scalar> 0();
    }
}


// ************************************************************************* //
