/*--------------------------------*- C++ -*----------------------------------*\
| =========                 |                                                 |
| \\      /  F ield         | OpenFOAM: The Open Source CFD Toolbox           |
|  \\    /   O peration     | Version:  2306                                  |
|   \\  /    A nd           | Website:  www.openfoam.com                      |
|    \\/     M anipulation  |                                                 |
\*---------------------------------------------------------------------------*/
FoamFile
{
    version     2.0;
    format      ascii;
    arch        "LSB;label=32;scalar=64";
    class       volVectorField;
    location    "0.64";
    object      U;
}
// * * * * * * * * * * * * * * * * * * * * * * * * * * * * * * * * * * * * * //

dimensions      [0 1 -1 0 0 0 0];

internalField   nonuniform List<vector> 
47500
(
(0.708058 0.141126 0)
(0.605107 0.126852 0)
(0.442238 0.0756733 0)
(0.323205 0.0428889 0)
(0.252628 0.0249084 0)
(0.207935 0.0151468 0)
(0.177257 0.00977788 0)
(0.155189 0.00671789 0)
(0.138693 0.0048735 0)
(0.125941 0.00368955 0)
(0.115823 0.00288364 0)
(0.107638 0.00230732 0)
(0.100916 0.00187861 0)
(0.095332 0.00154969 0)
(0.0906513 0.00129107 0)
(0.0867007 0.00108369 0)
(0.0833487 0.000914676 0)
(0.0804939 0.00077502 0)
(0.0780566 0.000658252 0)
(0.0759733 0.000559601 0)
(0.0741927 0.000475481 0)
(0.0726732 0.000403143 0)
(0.0713805 0.00034045 0)
(0.0702862 0.000285707 0)
(0.0693667 0.000237554 0)
(0.0686022 0.000194886 0)
(0.0679763 0.000156785 0)
(0.0674752 0.000122484 0)
(0.0670874 9.13276e-05 0)
(0.0668035 6.27429e-05 0)
(0.0666161 3.62219e-05 0)
(0.0665191 1.13e-05 0)
(0.0665085 -1.24601e-05 0)
(0.0665815 -3.5487e-05 0)
(0.066737 -5.82188e-05 0)
(0.0669761 -8.11313e-05 0)
(0.0673017 -0.000104771 0)
(0.0677197 -0.000129811 0)
(0.0682393 -0.000157149 0)
(0.068875 -0.000188121 0)
(0.0696488 -0.000224995 0)
(0.0705952 -0.000272227 0)
(0.0717707 -0.000339847 0)
(0.0732752 -0.000452808 0)
(0.0752977 -0.000676781 0)
(0.0782141 -0.00118827 0)
(0.0828941 -0.00247057 0)
(0.0917691 -0.00591945 0)
(0.110507 -0.0158017 0)
(0.145425 -0.0449153 0)
(0.990012 0.273751 0)
(0.981277 0.298007 0)
(0.863903 0.21609 0)
(0.734143 0.146999 0)
(0.62832 0.100193 0)
(0.545477 0.069771 0)
(0.48066 0.05016 0)
(0.429787 0.0373105 0)
(0.389455 0.0286159 0)
(0.357039 0.022513 0)
(0.330632 0.0180772 0)
(0.308863 0.0147523 0)
(0.290735 0.0121935 0)
(0.27551 0.0101803 0)
(0.262635 0.00856659 0)
(0.251688 0.00725242 0)
(0.242341 0.00616759 0)
(0.234337 0.00526148 0)
(0.22747 0.00449674 0)
(0.221574 0.00384535 0)
(0.216514 0.00328583 0)
(0.212178 0.00280151 0)
(0.208476 0.00237923 0)
(0.20533 0.00200844 0)
(0.202675 0.00168059 0)
(0.200459 0.00138863 0)
(0.198636 0.00112664 0)
(0.197168 0.000889602 0)
(0.196024 0.000673166 0)
(0.195178 0.000473469 0)
(0.194609 0.000286989 0)
(0.194302 0.000110414 0)
(0.194246 -5.95087e-05 0)
(0.194435 -0.000226125 0)
(0.194866 -0.000393077 0)
(0.195547 -0.000564577 0)
(0.196487 -0.000745816 0)
(0.197709 -0.000943596 0)
(0.199246 -0.00116741 0)
(0.201149 -0.00143133 0)
(0.203494 -0.00175763 0)
(0.206399 -0.00218395 0)
(0.210048 -0.00277825 0)
(0.214734 -0.00367163 0)
(0.220937 -0.00513132 0)
(0.22944 -0.00772136 0)
(0.241559 -0.0126527 0)
(0.259594 -0.0225917 0)
(0.286464 -0.0434296 0)
(0.320509 -0.0855654 0)
(1.02873 0.230537 0)
(1.06518 0.337273 0)
(1.02857 0.307935 0)
(0.952112 0.249931 0)
(0.866774 0.194722 0)
(0.785961 0.15009 0)
(0.714441 0.116323 0)
(0.653202 0.091316 0)
(0.601486 0.0727586 0)
(0.557967 0.0588158 0)
(0.521294 0.0481663 0)
(0.490281 0.0398887 0)
(0.463943 0.0333449 0)
(0.44148 0.0280902 0)
(0.422248 0.0238108 0)
(0.40573 0.0202814 0)
(0.391508 0.0173377 0)
(0.379242 0.0148577 0)
(0.368654 0.0127494 0)
(0.359514 0.0109424 0)
(0.351633 0.00938174 0)
(0.344852 0.00802441 0)
(0.339038 0.00683593 0)
(0.33408 0.00578839 0)
(0.329882 0.00485894 0)
(0.326364 0.00402854 0)
(0.323459 0.00328113 0)
(0.321111 0.00260293 0)
(0.319272 0.00198188 0)
(0.317903 0.00140714 0)
(0.316974 0.000868758 0)
(0.316461 0.000357211 0)
(0.316347 -0.000136981 0)
(0.316625 -0.000623741 0)
(0.317294 -0.00111404 0)
(0.318362 -0.00162075 0)
(0.319851 -0.00215988 0)
(0.321795 -0.00275247 0)
(0.324247 -0.0034277 0)
(0.327288 -0.00422798 0)
(0.331034 -0.00521782 0)
(0.335656 -0.00649953 0)
(0.341402 -0.00824172 0)
(0.348634 -0.0107317 0)
(0.357875 -0.014472 0)
(0.369842 -0.0203492 0)
(0.385447 -0.0299057 0)
(0.405663 -0.0457445 0)
(0.43054 -0.0719373 0)
(0.456225 -0.112674 0)
(1.02485 0.170713 0)
(1.0701 0.31458 0)
(1.08052 0.338862 0)
(1.05259 0.311341 0)
(1.00162 0.267049 0)
(0.941437 0.222039 0)
(0.880405 0.182511 0)
(0.822876 0.149853 0)
(0.770722 0.123532 0)
(0.724425 0.102475 0)
(0.683787 0.0855988 0)
(0.648316 0.0719866 0)
(0.617433 0.0609114 0)
(0.590566 0.0518145 0)
(0.567191 0.0442711 0)
(0.54685 0.0379583 0)
(0.529144 0.0326296 0)
(0.513733 0.0280954 0)
(0.500326 0.0242083 0)
(0.488676 0.0208527 0)
(0.478572 0.0179369 0)
(0.469834 0.0153874 0)
(0.462308 0.0131445 0)
(0.455862 0.0111594 0)
(0.450384 0.00939158 0)
(0.445779 0.00780685 0)
(0.441962 0.00637613 0)
(0.438866 0.00507421 0)
(0.436432 0.00387881 0)
(0.434613 0.00276976 0)
(0.433369 0.0017283 0)
(0.432672 0.000736357 0)
(0.432502 -0.000224216 0)
(0.432848 -0.00117255 0)
(0.433712 -0.00212988 0)
(0.435104 -0.00312111 0)
(0.437051 -0.00417703 0)
(0.439595 -0.00533763 0)
(0.442802 -0.00665719 0)
(0.446763 -0.00821233 0)
(0.451611 -0.0101148 0)
(0.457525 -0.0125323 0)
(0.464747 -0.0157222 0)
(0.473598 -0.0200851 0)
(0.484474 -0.0262474 0)
(0.497815 -0.0351754 0)
(0.51398 -0.048297 0)
(0.532963 -0.0675476 0)
(0.553655 -0.0950922 0)
(0.572644 -0.131806 0)
(1.01676 0.128188 0)
(1.05701 0.275119 0)
(1.08731 0.331706 0)
(1.09071 0.333618 0)
(1.07009 0.308319 0)
(1.03427 0.272656 0)
(0.990736 0.235656 0)
(0.944689 0.201449 0)
(0.899382 0.171492 0)
(0.856629 0.145945 0)
(0.817292 0.124422 0)
(0.781666 0.106361 0)
(0.749723 0.0911944 0)
(0.721266 0.0784164 0)
(0.696027 0.0675991 0)
(0.673711 0.0583918 0)
(0.654028 0.0505098 0)
(0.636705 0.0437236 0)
(0.621493 0.0378478 0)
(0.608167 0.0327323 0)
(0.596531 0.0282548 0)
(0.586407 0.024315 0)
(0.577642 0.02083 0)
(0.570101 0.0177306 0)
(0.563667 0.0149584 0)
(0.558237 0.0124639 0)
(0.553724 0.010204 0)
(0.550051 0.00814121 0)
(0.547156 0.00624177 0)
(0.544985 0.00447501 0)
(0.543496 0.00281208 0)
(0.542656 0.00122497 0)
(0.542444 -0.000314597 0)
(0.542847 -0.0018365 0)
(0.543867 -0.00337384 0)
(0.545514 -0.00496519 0)
(0.547817 -0.00665761 0)
(0.55082 -0.00851108 0)
(0.554587 -0.0106049 0)
(0.559211 -0.0130471 0)
(0.564812 -0.015989 0)
(0.571544 -0.0196453 0)
(0.579602 -0.024325 0)
(0.589205 -0.0304725 0)
(0.600576 -0.0387188 0)
(0.61387 -0.0499315 0)
(0.629037 -0.0652208 0)
(0.645582 -0.0858213 0)
(0.662182 -0.112683 0)
(0.676376 -0.145444 0)
(1.01072 0.0991317 0)
(1.04301 0.23517 0)
(1.0786 0.307021 0)
(1.09883 0.330721 0)
(1.09974 0.324345 0)
(1.08498 0.301816 0)
(1.05947 0.272329 0)
(1.02763 0.24131 0)
(0.992875 0.211623 0)
(0.957573 0.184563 0)
(0.923249 0.160547 0)
(0.890801 0.139539 0)
(0.860696 0.121295 0)
(0.833129 0.105495 0)
(0.808122 0.091814 0)
(0.785597 0.0799478 0)
(0.765418 0.0696286 0)
(0.747426 0.0606252 0)
(0.731452 0.0527413 0)
(0.717328 0.045811 0)
(0.704896 0.0396945 0)
(0.694006 0.0342736 0)
(0.684522 0.0294482 0)
(0.676322 0.0251329 0)
(0.669296 0.0212545 0)
(0.663344 0.0177492 0)
(0.658383 0.0145615 0)
(0.654336 0.0116416 0)
(0.651141 0.0089448 0)
(0.648742 0.00642964 0)
(0.647098 0.00405686 0)
(0.646175 0.00178809 0)
(0.645949 -0.000415558 0)
(0.646408 -0.00259518 0)
(0.647551 -0.00479608 0)
(0.649388 -0.00707047 0)
(0.651945 -0.00948105 0)
(0.655262 -0.0121059 0)
(0.659395 -0.0150454 0)
(0.664421 -0.0184315 0)
(0.670436 -0.0224411 0)
(0.677552 -0.0273131 0)
(0.685892 -0.0333707 0)
(0.695571 -0.0410467 0)
(0.706652 -0.0509048 0)
(0.719084 -0.0636426 0)
(0.732585 -0.0800393 0)
(0.746502 -0.100797 0)
(0.759659 -0.126202 0)
(0.7704 -0.155537 0)
(1.00696 0.078706 0)
(1.03212 0.199738 0)
(1.0665 0.27624 0)
(1.09406 0.313697 0)
(1.10825 0.322645 0)
(1.10913 0.313168 0)
(1.09906 0.29316 0)
(1.08101 0.26813 0)
(1.0578 0.241583 0)
(1.03173 0.215573 0)
(1.00456 0.191184 0)
(0.977504 0.168898 0)
(0.95136 0.148849 0)
(0.926631 0.130974 0)
(0.903601 0.115118 0)
(0.882401 0.101084 0)
(0.863066 0.0886702 0)
(0.845564 0.077681 0)
(0.829827 0.0679384 0)
(0.815763 0.0592826 0)
(0.803269 0.0515726 0)
(0.792242 0.0446845 0)
(0.782576 0.0385101 0)
(0.774173 0.0329545 0)
(0.76694 0.027934 0)
(0.760793 0.0233748 0)
(0.755656 0.0192109 0)
(0.751459 0.0153825 0)
(0.748145 0.011835 0)
(0.745663 0.00851697 0)
(0.743971 0.00537955 0)
(0.743038 0.00237445 0)
(0.742841 -0.000547381 0)
(0.743367 -0.00343768 0)
(0.744612 -0.00635311 0)
(0.746585 -0.00935817 0)
(0.749305 -0.0125289 0)
(0.752804 -0.0159578 0)
(0.757124 -0.0197601 0)
(0.762321 -0.0240825 0)
(0.768458 -0.029113 0)
(0.7756 -0.035094 0)
(0.783803 -0.0423352 0)
(0.793087 -0.0512245 0)
(0.803402 -0.0622288 0)
(0.814573 -0.0758708 0)
(0.826222 -0.0926591 0)
(0.837706 -0.112946 0)
(0.848088 -0.136691 0)
(0.856263 -0.163158 0)
(1.00471 0.0639288 0)
(1.02437 0.169812 0)
(1.05518 0.244955 0)
(1.08471 0.289746 0)
(1.1061 0.309619 0)
(1.11748 0.311214 0)
(1.11927 0.300617 0)
(1.11301 0.282689 0)
(1.10065 0.260963 0)
(1.08406 0.237828 0)
(1.06488 0.214794 0)
(1.04438 0.192751 0)
(1.02351 0.172169 0)
(1.00297 0.153253 0)
(0.983224 0.136041 0)
(0.96457 0.12048 0)
(0.947192 0.106463 0)
(0.931182 0.0938616 0)
(0.916572 0.0825407 0)
(0.903353 0.0723669 0)
(0.891488 0.0632142 0)
(0.880924 0.0549661 0)
(0.871598 0.0475162 0)
(0.863444 0.0407678 0)
(0.856393 0.0346335 0)
(0.850382 0.0290336 0)
(0.845349 0.0238955 0)
(0.841238 0.0191522 0)
(0.837999 0.0147413 0)
(0.835588 0.0106035 0)
(0.83397 0.0066815 0)
(0.833114 0.00291849 0)
(0.833001 -0.000743477 0)
(0.833617 -0.00436536 0)
(0.834957 -0.00801346 0)
(0.837026 -0.0117622 0)
(0.839836 -0.0156978 0)
(0.843407 -0.0199224 0)
(0.847766 -0.0245599 0)
(0.852946 -0.0297623 0)
(0.858978 -0.0357172 0)
(0.865882 -0.042655 0)
(0.873657 -0.0508553 0)
(0.882257 -0.060647 0)
(0.891559 -0.072397 0)
(0.901327 -0.0864778 0)
(0.911171 -0.103201 0)
(0.920526 -0.122708 0)
(0.928672 -0.144819 0)
(0.934866 -0.168887 0)
(1.00335 0.0528705 0)
(1.01892 0.144905 0)
(1.04573 0.21562 0)
(1.0745 0.263238 0)
(1.09913 0.290072 0)
(1.11694 0.300134 0)
(1.12715 0.297754 0)
(1.13018 0.286849 0)
(1.12712 0.270593 0)
(1.11929 0.251377 0)
(1.10799 0.230893 0)
(1.09438 0.21028 0)
(1.07941 0.190262 0)
(1.06384 0.171267 0)
(1.04822 0.153522 0)
(1.03299 0.137117 0)
(1.01841 0.122059 0)
(1.00469 0.1083 0)
(0.991945 0.0957666 0)
(0.980245 0.0843659 0)
(0.969617 0.074001 0)
(0.96006 0.0645741 0)
(0.951555 0.0559902 0)
(0.944073 0.0481591 0)
(0.937576 0.0409954 0)
(0.932022 0.0344192 0)
(0.92737 0.0283554 0)
(0.923578 0.0227332 0)
(0.92061 0.0174852 0)
(0.918431 0.0125467 0)
(0.917012 0.00785394 0)
(0.91633 0.00334359 0)
(0.916366 -0.00104934 0)
(0.917107 -0.00539307 0)
(0.918549 -0.00976118 0)
(0.920691 -0.0142353 0)
(0.923538 -0.018908 0)
(0.9271 -0.0238869 0)
(0.931388 -0.0292983 0)
(0.936413 -0.0352923 0)
(0.942177 -0.0420472 0)
(0.948666 -0.0497727 0)
(0.955836 -0.0587108 0)
(0.963597 -0.0691294 0)
(0.971788 -0.0813066 0)
(0.980158 -0.0954977 0)
(0.988343 -0.11188 0)
(0.99587 -0.130476 0)
(1.0022 -0.151062 0)
(1.00681 -0.173101 0)
(1.00249 0.0443077 0)
(1.01505 0.124158 0)
(1.03815 0.189092 0)
(1.06495 0.236619 0)
(1.09042 0.267282 0)
(1.11174 0.283267 0)
(1.12753 0.287452 0)
(1.13744 0.282786 0)
(1.14186 0.271909 0)
(1.14155 0.256995 0)
(1.13745 0.239726 0)
(1.13048 0.221343 0)
(1.12148 0.202719 0)
(1.11117 0.184445 0)
(1.10013 0.166898 0)
(1.08884 0.150298 0)
(1.07763 0.134761 0)
(1.06678 0.120326 0)
(1.05647 0.106984 0)
(1.04682 0.0946951 0)
(1.03793 0.0833998 0)
(1.02984 0.0730275 0)
(1.02258 0.0635025 0)
(1.01615 0.0547473 0)
(1.01054 0.046685 0)
(1.00574 0.0392402 0)
(1.00173 0.0323396 0)
(0.998477 0.0259122 0)
(0.995969 0.0198888 0)
(0.994179 0.0142016 0)
(0.993088 0.00878331 0)
(0.992677 0.00356601 0)
(0.992932 -0.00152001 0)
(0.993844 -0.00654787 0)
(0.995406 -0.0115959 0)
(0.997615 -0.01675 0)
(1.00047 -0.0221057 0)
(1.00397 -0.0277717 0)
(1.00811 -0.0338723 0)
(1.01289 -0.0405502 0)
(1.01828 -0.0479693 0)
(1.02425 -0.0563142 0)
(1.03072 -0.0657881 0)
(1.03759 -0.0766036 0)
(1.04466 -0.0889658 0)
(1.05171 -0.103043 0)
(1.05842 -0.118927 0)
(1.06438 -0.136576 0)
(1.0692 -0.155768 0)
(1.07251 -0.176066 0)
(1.00193 0.0374798 0)
(1.01223 0.106747 0)
(1.03212 0.165481 0)
(1.05656 0.211135 0)
(1.08152 0.243327 0)
(1.1044 0.263056 0)
(1.1236 0.272104 0)
(1.13833 0.272569 0)
(1.14845 0.266522 0)
(1.15429 0.255813 0)
(1.1564 0.241986 0)
(1.15545 0.226265 0)
(1.1521 0.209582 0)
(1.14698 0.19262 0)
(1.14063 0.175858 0)
(1.1335 0.159623 0)
(1.12598 0.144119 0)
(1.11836 0.129467 0)
(1.11086 0.115723 0)
(1.10366 0.1029 0)
(1.09689 0.0909808 0)
(1.09064 0.0799266 0)
(1.08496 0.0696862 0)
(1.07989 0.0602004 0)
(1.07546 0.051405 0)
(1.07167 0.0432333 0)
(1.06853 0.0356177 0)
(1.06602 0.0284903 0)
(1.06415 0.0217832 0)
(1.06289 0.0154283 0)
(1.06225 0.0093571 0)
(1.06221 0.00349958 0)
(1.06276 -0.00221635 0)
(1.06389 -0.00786631 0)
(1.0656 -0.0135308 0)
(1.06788 -0.0192972 0)
(1.07073 -0.025261 0)
(1.07414 -0.0315286 0)
(1.0781 -0.0382185 0)
(1.08258 -0.0454631 0)
(1.08754 -0.053409 0)
(1.09294 -0.0622151 0)
(1.09869 -0.0720484 0)
(1.10465 -0.0830744 0)
(1.11067 -0.0954412 0)
(1.11651 -0.109256 0)
(1.1219 -0.124555 0)
(1.12653 -0.14127 0)
(1.13009 -0.159194 0)
(1.1323 -0.177978 0)
(1.00154 0.0319034 0)
(1.01014 0.0919934 0)
(1.02733 0.144582 0)
(1.04939 0.187342 0)
(1.07314 0.219455 0)
(1.09635 0.241192 0)
(1.1174 0.253561 0)
(1.13529 0.257972 0)
(1.14957 0.255975 0)
(1.16022 0.249066 0)
(1.16747 0.238582 0)
(1.17173 0.225655 0)
(1.17348 0.211199 0)
(1.17322 0.195927 0)
(1.1714 0.180379 0)
(1.16843 0.164947 0)
(1.16469 0.149908 0)
(1.16046 0.135447 0)
(1.156 0.121678 0)
(1.15149 0.108663 0)
(1.1471 0.0964264 0)
(1.14294 0.0849636 0)
(1.13911 0.0742499 0)
(1.13565 0.0642469 0)
(1.13262 0.0549062 0)
(1.13006 0.0461733 0)
(1.12798 0.037989 0)
(1.12639 0.0302914 0)
(1.1253 0.0230165 0)
(1.12471 0.0160985 0)
(1.12463 0.00946975 0)
(1.12504 0.0030608 0)
(1.12595 -0.00320069 0)
(1.12736 -0.00939052 0)
(1.12925 -0.0155891 0)
(1.13162 -0.0218825 0)
(1.13447 -0.028364 0)
(1.13778 -0.035135 0)
(1.14153 -0.0423061 0)
(1.14569 -0.0499972 0)
(1.15022 -0.0583371 0)
(1.15504 -0.0674603 0)
(1.16007 -0.0775021 0)
(1.16518 -0.0885893 0)
(1.17021 -0.100827 0)
(1.17496 -0.114281 0)
(1.1792 -0.128953 0)
(1.18268 -0.144765 0)
(1.18516 -0.161536 0)
(1.18644 -0.178983 0)
(1.00126 0.0272583 0)
(1.00854 0.0793617 0)
(1.0235 0.126089 0)
(1.04334 0.165415 0)
(1.06559 0.196366 0)
(1.08837 0.218795 0)
(1.1102 0.233181 0)
(1.13002 0.240419 0)
(1.14718 0.241618 0)
(1.16144 0.237937 0)
(1.17278 0.230487 0)
(1.1814 0.220259 0)
(1.18759 0.208102 0)
(1.19169 0.194713 0)
(1.19407 0.180647 0)
(1.19508 0.166334 0)
(1.19503 0.152094 0)
(1.19421 0.138159 0)
(1.19284 0.124692 0)
(1.19114 0.111796 0)
(1.18928 0.0995316 0)
(1.18737 0.0879265 0)
(1.18554 0.0769824 0)
(1.18387 0.0666824 0)
(1.18242 0.0569956 0)
(1.18124 0.0478811 0)
(1.18036 0.0392904 0)
(1.17983 0.0311694 0)
(1.17964 0.0234602 0)
(1.17983 0.0161013 0)
(1.18039 0.00902834 0)
(1.18134 0.00217402 0)
(1.18268 -0.00453204 0)
(1.1844 -0.0111638 0)
(1.18651 -0.0177994 0)
(1.18901 -0.024522 0)
(1.19187 -0.0314201 0)
(1.19509 -0.0385886 0)
(1.19863 -0.0461288 0)
(1.20248 -0.0541475 0)
(1.20656 -0.0627561 0)
(1.21083 -0.0720672 0)
(1.21517 -0.082189 0)
(1.21949 -0.093218 0)
(1.22362 -0.105227 0)
(1.2274 -0.118254 0)
(1.23064 -0.132282 0)
(1.23313 -0.147232 0)
(1.23468 -0.162947 0)
(1.23514 -0.179197 0)
(1.00105 0.0233246 0)
(1.0073 0.0684349 0)
(1.02042 0.109676 0)
(1.03827 0.145332 0)
(1.05893 0.17442 0)
(1.08087 0.19657 0)
(1.10277 0.211925 0)
(1.12361 0.221004 0)
(1.14267 0.224566 0)
(1.15953 0.22348 0)
(1.17403 0.218631 0)
(1.18617 0.210858 0)
(1.19609 0.200913 0)
(1.204 0.189445 0)
(1.21016 0.176993 0)
(1.21482 0.163992 0)
(1.21826 0.150788 0)
(1.22071 0.137639 0)
(1.22239 0.124741 0)
(1.22349 0.11223 0)
(1.22419 0.100197 0)
(1.22461 0.088696 0)
(1.22488 0.0777534 0)
(1.22508 0.0673725 0)
(1.22531 0.0575397 0)
(1.22561 0.0482282 0)
(1.22605 0.039401 0)
(1.22666 0.0310133 0)
(1.22747 0.0230146 0)
(1.22851 0.0153491 0)
(1.22979 0.00795741 0)
(1.23133 0.000776116 0)
(1.23314 -0.00626157 0)
(1.23523 -0.0132261 0)
(1.23759 -0.0201916 0)
(1.24022 -0.0272367 0)
(1.24312 -0.0344439 0)
(1.24626 -0.0419003 0)
(1.24961 -0.049697 0)
(1.25316 -0.0579283 0)
(1.25683 -0.0666892 0)
(1.26057 -0.0760729 0)
(1.26429 -0.0861657 0)
(1.26787 -0.0970398 0)
(1.2712 -0.108746 0)
(1.27412 -0.121301 0)
(1.27648 -0.13468 0)
(1.2781 -0.148806 0)
(1.27884 -0.163547 0)
(1.27859 -0.178715 0)
(1.00089 0.0199449 0)
(1.00633 0.0588875 0)
(1.01792 0.0950398 0)
(1.03402 0.126971 0)
(1.05314 0.15376 0)
(1.07404 0.174938 0)
(1.09557 0.190443 0)
(1.1168 0.200534 0)
(1.137 0.205705 0)
(1.15566 0.206583 0)
(1.17252 0.203853 0)
(1.18743 0.198203 0)
(1.20041 0.190276 0)
(1.21155 0.180651 0)
(1.22099 0.169831 0)
(1.22893 0.158236 0)
(1.23555 0.146212 0)
(1.24106 0.134032 0)
(1.24563 0.121908 0)
(1.24944 0.109999 0)
(1.25265 0.098417 0)
(1.25538 0.0872386 0)
(1.25775 0.0765094 0)
(1.25986 0.0662509 0)
(1.26181 0.056465 0)
(1.26365 0.0471382 0)
(1.26545 0.0382451 0)
(1.26726 0.0297506 0)
(1.26911 0.0216121 0)
(1.27105 0.0137808 0)
(1.2731 0.00620298 0)
(1.27528 -0.00117941 0)
(1.2776 -0.00842835 0)
(1.28007 -0.0156094 0)
(1.2827 -0.0227918 0)
(1.2855 -0.0300479 0)
(1.28844 -0.0374536 0)
(1.29152 -0.0450876 0)
(1.29471 -0.0530308 0)
(1.29797 -0.0613649 0)
(1.30127 -0.0701707 0)
(1.30452 -0.0795246 0)
(1.30766 -0.0894946 0)
(1.31059 -0.100135 0)
(1.3132 -0.111478 0)
(1.31536 -0.123531 0)
(1.31694 -0.136262 0)
(1.31781 -0.149601 0)
(1.31784 -0.163436 0)
(1.31695 -0.177611 0)
(1.00077 0.0170034 0)
(1.00555 0.0504631 0)
(1.01588 0.081912 0)
(1.03048 0.110166 0)
(1.04816 0.134402 0)
(1.06794 0.154126 0)
(1.08886 0.169157 0)
(1.11006 0.179585 0)
(1.13084 0.185709 0)
(1.15069 0.187965 0)
(1.16924 0.18687 0)
(1.18627 0.182971 0)
(1.2017 0.176802 0)
(1.2155 0.168867 0)
(1.22775 0.159613 0)
(1.23854 0.149434 0)
(1.248 0.13866 0)
(1.25629 0.127562 0)
(1.26353 0.116358 0)
(1.26988 0.105217 0)
(1.27547 0.0942656 0)
(1.28042 0.0835954 0)
(1.28484 0.0732666 0)
(1.28883 0.0633149 0)
(1.29247 0.0537552 0)
(1.29585 0.044586 0)
(1.29901 0.0357923 0)
(1.30203 0.0273483 0)
(1.30495 0.0192194 0)
(1.30781 0.0113642 0)
(1.31064 0.00373532 0)
(1.31346 -0.00371934 0)
(1.31631 -0.011056 0)
(1.31918 -0.0183346 0)
(1.3221 -0.0256182 0)
(1.32507 -0.0329727 0)
(1.32808 -0.0404665 0)
(1.33111 -0.0481697 0)
(1.33415 -0.0561531 0)
(1.33716 -0.064487 0)
(1.34011 -0.0732391 0)
(1.34292 -0.0824718 0)
(1.34554 -0.0922382 0)
(1.34788 -0.102578 0)
(1.34984 -0.113513 0)
(1.35133 -0.125039 0)
(1.35222 -0.137126 0)
(1.35242 -0.14971 0)
(1.35183 -0.162694 0)
(1.35037 -0.175951 0)
(1.00067 0.014412 0)
(1.00492 0.0429569 0)
(1.01421 0.0700568 0)
(1.02752 0.0947398 0)
(1.04391 0.116289 0)
(1.06259 0.134229 0)
(1.08277 0.148322 0)
(1.10367 0.158551 0)
(1.12467 0.165076 0)
(1.14522 0.168191 0)
(1.16494 0.168274 0)
(1.18355 0.16575 0)
(1.20088 0.161052 0)
(1.21685 0.154604 0)
(1.23142 0.146797 0)
(1.24465 0.137983 0)
(1.25658 0.128466 0)
(1.26733 0.118505 0)
(1.27698 0.108313 0)
(1.28565 0.0980611 0)
(1.29344 0.0878805 0)
(1.30046 0.0778706 0)
(1.30682 0.0681015 0)
(1.31259 0.0586187 0)
(1.31787 0.0494473 0)
(1.32272 0.0405951 0)
(1.32722 0.0320561 0)
(1.33142 0.0238127 0)
(1.33538 0.015838 0)
(1.33914 0.00809755 0)
(1.34274 0.000550637 0)
(1.3462 -0.00684859 0)
(1.34957 -0.0141502 0)
(1.35284 -0.0214079 0)
(1.35605 -0.0286783 0)
(1.35919 -0.0360202 0)
(1.36227 -0.0434944 0)
(1.36527 -0.0511622 0)
(1.36817 -0.0590852 0)
(1.37095 -0.0673229 0)
(1.37358 -0.0759317 0)
(1.37599 -0.0849617 0)
(1.37814 -0.0944542 0)
(1.37995 -0.104438 0)
(1.38134 -0.114925 0)
(1.38222 -0.125908 0)
(1.3825 -0.137356 0)
(1.38211 -0.14921 0)
(1.38095 -0.161389 0)
(1.37899 -0.173786 0)
(1.0006 0.0121022 0)
(1.00441 0.0362024 0)
(1.01285 0.0592703 0)
(1.02506 0.0805133 0)
(1.04031 0.0993217 0)
(1.05797 0.11526 0)
(1.07736 0.128075 0)
(1.09782 0.137685 0)
(1.11877 0.144161 0)
(1.13969 0.147689 0)
(1.16018 0.148539 0)
(1.17993 0.147032 0)
(1.19872 0.143514 0)
(1.21638 0.138331 0)
(1.23286 0.131817 0)
(1.24811 0.124275 0)
(1.26215 0.115981 0)
(1.27502 0.107169 0)
(1.28679 0.0980387 0)
(1.29752 0.088755 0)
(1.3073 0.0794481 0)
(1.31621 0.0702186 0)
(1.32434 0.0611408 0)
(1.33176 0.0522658 0)
(1.33856 0.0436249 0)
(1.3448 0.0352329 0)
(1.35054 0.0270906 0)
(1.35586 0.0191873 0)
(1.36081 0.0115028 0)
(1.36542 0.00400901 0)
(1.36975 -0.00332846 0)
(1.37383 -0.0105492 0)
(1.37768 -0.0176971 0)
(1.38134 -0.0248194 0)
(1.38481 -0.031966 0)
(1.38812 -0.0391886 0)
(1.39126 -0.0465403 0)
(1.39422 -0.0540743 0)
(1.397 -0.0618429 0)
(1.39957 -0.0698962 0)
(1.4019 -0.0782804 0)
(1.40395 -0.0870354 0)
(1.40566 -0.0961928 0)
(1.40699 -0.105773 0)
(1.40785 -0.115781 0)
(1.40819 -0.126206 0)
(1.40793 -0.137017 0)
(1.407 -0.148164 0)
(1.40534 -0.159575 0)
(1.40291 -0.17116 0)
(1.00054 0.0100194 0)
(1.00401 0.0300626 0)
(1.01173 0.0493747 0)
(1.02303 0.0673158 0)
(1.0373 0.0833772 0)
(1.05403 0.0971764 0)
(1.07265 0.108467 0)
(1.0926 0.11714 0)
(1.11335 0.123205 0)
(1.13441 0.126773 0)
(1.15537 0.128032 0)
(1.17592 0.127219 0)
(1.19578 0.124604 0)
(1.21476 0.120464 0)
(1.23275 0.115074 0)
(1.24965 0.108692 0)
(1.26544 0.101554 0)
(1.28011 0.0938698 0)
(1.29368 0.0858184 0)
(1.3062 0.077551 0)
(1.31772 0.0691901 0)
(1.3283 0.0608327 0)
(1.33801 0.0525519 0)
(1.34691 0.0444003 0)
(1.35507 0.036412 0)
(1.36257 0.0286057 0)
(1.36945 0.020987 0)
(1.37579 0.0135503 0)
(1.38163 0.00628057 0)
(1.38703 -0.000844484 0)
(1.39202 -0.00785357 0)
(1.39665 -0.0147804 0)
(1.40095 -0.0216628 0)
(1.40495 -0.0285417 0)
(1.40866 -0.0354604 0)
(1.4121 -0.0424636 0)
(1.41529 -0.0495969 0)
(1.41821 -0.0569057 0)
(1.42086 -0.0644338 0)
(1.42322 -0.0722227 0)
(1.42527 -0.0803096 0)
(1.42697 -0.0887258 0)
(1.42829 -0.0974948 0)
(1.42917 -0.10663 0)
(1.42956 -0.116131 0)
(1.42941 -0.125987 0)
(1.42865 -0.136166 0)
(1.42724 -0.146623 0)
(1.42512 -0.157297 0)
(1.42226 -0.168111 0)
(1.00049 0.00811866 0)
(1.00368 0.0244222 0)
(1.01084 0.0402146 0)
(1.02138 0.0549866 0)
(1.03481 0.0683232 0)
(1.05073 0.0799002 0)
(1.06865 0.0894948 0)
(1.08808 0.0969881 0)
(1.10854 0.102358 0)
(1.12958 0.105663 0)
(1.15081 0.10703 0)
(1.17188 0.10663 0)
(1.19252 0.104668 0)
(1.2125 0.101361 0)
(1.23166 0.0969289 0)
(1.24987 0.0915839 0)
(1.26708 0.0855237 0)
(1.28322 0.0789262 0)
(1.2983 0.0719471 0)
(1.31232 0.0647191 0)
(1.32532 0.0573521 0)
(1.33732 0.0499341 0)
(1.34839 0.0425332 0)
(1.35857 0.0351991 0)
(1.36792 0.0279657 0)
(1.37651 0.0208529 0)
(1.38439 0.0138684 0)
(1.39161 0.00700991 0)
(1.39824 0.000266615 0)
(1.40431 -0.00637944 0)
(1.40988 -0.012952 0)
(1.41499 -0.0194794 0)
(1.41966 -0.0259938 0)
(1.42394 -0.0325301 0)
(1.42784 -0.0391253 0)
(1.43139 -0.0458174 0)
(1.43459 -0.0526448 0)
(1.43744 -0.0596455 0)
(1.43995 -0.0668556 0)
(1.44211 -0.0743088 0)
(1.44388 -0.0820345 0)
(1.44526 -0.0900564 0)
(1.4462 -0.0983912 0)
(1.44666 -0.107047 0)
(1.44662 -0.11602 0)
(1.44601 -0.125295 0)
(1.44479 -0.134845 0)
(1.44293 -0.144629 0)
(1.44039 -0.154592 0)
(1.43712 -0.164668 0)
(1.00045 0.00636276 0)
(1.00342 0.0191824 0)
(1.01012 0.0316519 0)
(1.02005 0.0433752 0)
(1.0328 0.0540234 0)
(1.04803 0.063332 0)
(1.06534 0.0711107 0)
(1.08428 0.0772471 0)
(1.10443 0.0817028 0)
(1.12537 0.0845048 0)
(1.1467 0.0857339 0)
(1.16811 0.0855117 0)
(1.18929 0.0839873 0)
(1.20999 0.0813261 0)
(1.23003 0.0776985 0)
(1.24926 0.0732724 0)
(1.26757 0.0682065 0)
(1.28489 0.0626458 0)
(1.30117 0.0567191 0)
(1.31641 0.0505374 0)
(1.33061 0.0441937 0)
(1.34378 0.0377635 0)
(1.35597 0.0313059 0)
(1.36721 0.0248647 0)
(1.37755 0.0184703 0)
(1.38704 0.012141 0)
(1.39575 0.0058849 0)
(1.4037 -0.000298819 0)
(1.41097 -0.00641849 0)
(1.4176 -0.0124886 0)
(1.42364 -0.0185289 0)
(1.42912 -0.0245631 0)
(1.43409 -0.0306181 0)
(1.43858 -0.0367233 0)
(1.4426 -0.0429096 0)
(1.4462 -0.0492087 0)
(1.44937 -0.0556525 0)
(1.45213 -0.0622719 0)
(1.45448 -0.0690961 0)
(1.45641 -0.0761515 0)
(1.45791 -0.0834606 0)
(1.45896 -0.0910409 0)
(1.45953 -0.098903 0)
(1.45961 -0.10705 0)
(1.45914 -0.115476 0)
(1.45811 -0.124165 0)
(1.45647 -0.13309 0)
(1.45419 -0.142214 0)
(1.45124 -0.151488 0)
(1.44761 -0.160856 0)
(1.00042 0.00471968 0)
(1.00323 0.0142571 0)
(1.00957 0.023563 0)
(1.01902 0.0323409 0)
(1.03123 0.0403412 0)
(1.0459 0.047359 0)
(1.06269 0.0532418 0)
(1.08121 0.0578935 0)
(1.10106 0.0612726 0)
(1.12185 0.0633868 0)
(1.14321 0.0642854 0)
(1.16481 0.0640504 0)
(1.18634 0.0627869 0)
(1.20755 0.0606145 0)
(1.22823 0.0576591 0)
(1.2482 0.0540466 0)
(1.26733 0.0498975 0)
(1.28554 0.0453231 0)
(1.30274 0.0404235 0)
(1.31892 0.0352854 0)
(1.33404 0.0299823 0)
(1.34812 0.024574 0)
(1.36118 0.0191076 0)
(1.37324 0.0136183 0)
(1.38435 0.00813027 0)
(1.39455 0.00265839 0)
(1.40388 -0.00279112 0)
(1.4124 -0.0082192 0)
(1.42016 -0.0136329 0)
(1.4272 -0.0190446 0)
(1.43357 -0.0244706 0)
(1.43932 -0.0299308 0)
(1.44448 -0.0354474 0)
(1.44908 -0.0410448 0)
(1.45316 -0.0467484 0)
(1.45673 -0.052584 0)
(1.45983 -0.0585771 0)
(1.46245 -0.0647524 0)
(1.4646 -0.0711327 0)
(1.46628 -0.0777378 0)
(1.46749 -0.0845843 0)
(1.46822 -0.0916837 0)
(1.46843 -0.0990419 0)
(1.46812 -0.106658 0)
(1.46726 -0.114524 0)
(1.46582 -0.122622 0)
(1.46378 -0.130927 0)
(1.46111 -0.139403 0)
(1.45778 -0.148009 0)
(1.45379 -0.156693 0)
(1.0004 0.0031613 0)
(1.00308 0.0095695 0)
(1.00917 0.0158348 0)
(1.01826 0.0217506 0)
(1.03006 0.0271413 0)
(1.04431 0.0318604 0)
(1.0607 0.0357964 0)
(1.07888 0.0388755 0)
(1.09847 0.0410617 0)
(1.11911 0.0423531 0)
(1.14044 0.0427774 0)
(1.16213 0.0423858 0)
(1.18387 0.0412467 0)
(1.20541 0.0394401 0)
(1.2265 0.0370512 0)
(1.24698 0.0341665 0)
(1.26668 0.0308693 0)
(1.2855 0.0272374 0)
(1.30335 0.0233407 0)
(1.32018 0.0192404 0)
(1.33597 0.014988 0)
(1.35069 0.0106258 0)
(1.36436 0.0061865 0)
(1.377 0.00169441 0)
(1.38864 -0.00283418 0)
(1.39932 -0.00739004 0)
(1.40908 -0.0119702 0)
(1.41798 -0.0165771 0)
(1.42605 -0.0212179 0)
(1.43335 -0.0259032 0)
(1.43991 -0.0306474 0)
(1.44579 -0.0354667 0)
(1.45103 -0.0403795 0)
(1.45565 -0.0454056 0)
(1.45969 -0.0505651 0)
(1.46317 -0.0558785 0)
(1.46612 -0.0613656 0)
(1.46855 -0.0670452 0)
(1.47047 -0.0729341 0)
(1.47188 -0.0790465 0)
(1.47278 -0.0853932 0)
(1.47316 -0.091981 0)
(1.47302 -0.0988113 0)
(1.47233 -0.10588 0)
(1.47108 -0.113176 0)
(1.46925 -0.120682 0)
(1.46681 -0.128373 0)
(1.46376 -0.136216 0)
(1.46008 -0.144173 0)
(1.45575 -0.152198 0)
(1.00039 0.00166229 0)
(1.00299 0.00504922 0)
(1.0089 0.00836228 0)
(1.01776 0.011478 0)
(1.02928 0.0142907 0)
(1.04324 0.0167112 0)
(1.05935 0.0186704 0)
(1.07728 0.0201211 0)
(1.09668 0.0210382 0)
(1.11719 0.0214164 0)
(1.13846 0.0212684 0)
(1.16017 0.0206209 0)
(1.18201 0.0195111 0)
(1.20372 0.0179834 0)
(1.22505 0.0160859 0)
(1.24582 0.0138674 0)
(1.26585 0.0113752 0)
(1.28504 0.00865357 0)
(1.30327 0.00574205 0)
(1.32049 0.00267496 0)
(1.33665 -0.000519104 0)
(1.35175 -0.00381737 0)
(1.36577 -0.0072027 0)
(1.37873 -0.0106633 0)
(1.39067 -0.0141924 0)
(1.40161 -0.0177876 0)
(1.41159 -0.0214503 0)
(1.42066 -0.0251857 0)
(1.42886 -0.0290014 0)
(1.43624 -0.0329079 0)
(1.44285 -0.0369174 0)
(1.44873 -0.0410436 0)
(1.45391 -0.0453014 0)
(1.45844 -0.0497062 0)
(1.46235 -0.0542735 0)
(1.46566 -0.0590189 0)
(1.46839 -0.0639568 0)
(1.47057 -0.0691005 0)
(1.47221 -0.0744616 0)
(1.47331 -0.0800489 0)
(1.47387 -0.0858684 0)
(1.4739 -0.0919221 0)
(1.47338 -0.0982079 0)
(1.47231 -0.104718 0)
(1.47068 -0.111441 0)
(1.46846 -0.118357 0)
(1.46565 -0.125443 0)
(1.46223 -0.132667 0)
(1.4582 -0.139993 0)
(1.45354 -0.147382 0)
(1.00038 0.000199155 0)
(1.00294 0.000630538 0)
(1.00876 0.00104599 0)
(1.01749 0.00140115 0)
(1.02887 0.0016579 0)
(1.04267 0.00178364 0)
(1.05862 0.00175248 0)
(1.07641 0.00154582 0)
(1.09568 0.00115236 0)
(1.1161 0.000567519 0)
(1.13732 -0.000207505 0)
(1.159 -0.00116683 0)
(1.18085 -0.00230113 0)
(1.2026 -0.00359888 0)
(1.224 -0.00504744 0)
(1.24486 -0.00663408 0)
(1.265 -0.00834675 0)
(1.2843 -0.0101747 0)
(1.30266 -0.0121089 0)
(1.32 -0.0141425 0)
(1.33628 -0.0162705 0)
(1.35148 -0.0184904 0)
(1.36559 -0.0208018 0)
(1.37863 -0.0232062 0)
(1.39061 -0.0257072 0)
(1.40157 -0.0283099 0)
(1.41155 -0.0310213 0)
(1.42059 -0.0338493 0)
(1.42873 -0.0368034 0)
(1.43603 -0.0398936 0)
(1.44252 -0.0431309 0)
(1.44824 -0.0465268 0)
(1.45325 -0.0500927 0)
(1.45757 -0.0538404 0)
(1.46124 -0.0577811 0)
(1.46429 -0.0619256 0)
(1.46674 -0.0662836 0)
(1.46861 -0.0708632 0)
(1.46991 -0.0756711 0)
(1.47066 -0.0807113 0)
(1.47086 -0.0859854 0)
(1.47051 -0.0914913 0)
(1.46961 -0.0972234 0)
(1.46815 -0.103172 0)
(1.46612 -0.109322 0)
(1.46353 -0.115655 0)
(1.46035 -0.122146 0)
(1.45657 -0.128766 0)
(1.4522 -0.135483 0)
(1.44723 -0.142258 0)
(1.00038 -0.00125053 0)
(1.00293 -0.0037497 0)
(1.00874 -0.00621041 0)
(1.01746 -0.00859916 0)
(1.02882 -0.0108873 0)
(1.04259 -0.0130511 0)
(1.05852 -0.0150729 0)
(1.07627 -0.0169422 0)
(1.0955 -0.0186553 0)
(1.11586 -0.020215 0)
(1.13702 -0.0216303 0)
(1.15864 -0.0229148 0)
(1.18042 -0.0240862 0)
(1.20209 -0.0251648 0)
(1.2234 -0.0261727 0)
(1.24416 -0.0271328 0)
(1.26419 -0.0280683 0)
(1.28338 -0.0290016 0)
(1.3016 -0.0299544 0)
(1.31881 -0.0309473 0)
(1.33494 -0.0319994 0)
(1.34998 -0.0331286 0)
(1.36392 -0.0343515 0)
(1.37677 -0.0356832 0)
(1.38855 -0.0371381 0)
(1.39931 -0.0387292 0)
(1.40906 -0.0404688 0)
(1.41786 -0.0423684 0)
(1.42576 -0.0444391 0)
(1.43278 -0.0466909 0)
(1.43899 -0.0491339 0)
(1.44443 -0.0517771 0)
(1.44912 -0.0546293 0)
(1.45312 -0.0576985 0)
(1.45645 -0.0609921 0)
(1.45915 -0.0645162 0)
(1.46123 -0.0682759 0)
(1.46273 -0.0722751 0)
(1.46365 -0.0765156 0)
(1.46401 -0.0809971 0)
(1.46381 -0.085717 0)
(1.46305 -0.0906697 0)
(1.46175 -0.0958464 0)
(1.4599 -0.101235 0)