/*--------------------------------*- C++ -*----------------------------------*\
| =========                 |                                                 |
| \\      /  F ield         | OpenFOAM: The Open Source CFD Toolbox           |
|  \\    /   O peration     | Version:  2306                                  |
|   \\  /    A nd           | Website:  www.openfoam.com                      |
|    \\/     M anipulation  |                                                 |
\*---------------------------------------------------------------------------*/
FoamFile
{
    version     2.0;
    format      ascii;
    arch        "LSB;label=32;scalar=64";
    class       surfaceScalarField;
    location    "0.19";
    object      phi;
}
// * * * * * * * * * * * * * * * * * * * * * * * * * * * * * * * * * * * * * //

dimensions      [0 3 -1 0 0 0 0];

oriented        oriented;

internalField   nonuniform List<scalar> 
890
(
8.50915e-05
1.49085e-05
7.26709e-05
1.24207e-05
6.71619e-05
5.50895e-06
6.78851e-05
-7.23172e-07
-9.59686e-06
7.74819e-05
0.0001097
5.20822e-06
0.000117544
4.57731e-06
0.000122406
6.46056e-07
0.000126117
-4.43372e-06
-1.13849e-05
0.000127905
0.00011182
-6.61164e-06
0.000124952
-8.55464e-06
0.000133372
-7.77407e-06
0.0001371
-8.16171e-06
-1.04771e-05
0.000136192
0.000109058
-1.56699e-05
0.000115016
-1.45126e-05
0.000116576
-9.33397e-06
0.000114861
-6.44663e-06
-5.61466e-06
0.000109999
8.43301e-05
6.98175e-05
6.04835e-05
5.40369e-05
4.84222e-05
-1.6107e-06
1.6107e-06
-2.48784e-06
8.77141e-07
-1.7678e-06
-7.20042e-07
2.25237e-07
-1.99304e-06
2.90191e-06
-2.67668e-06
5.75545e-06
-2.85354e-06
8.41522e-06
-2.65977e-06
1.06732e-05
-2.25797e-06
1.24514e-05
-1.77821e-06
1.37579e-05
-1.30645e-06
1.46488e-05
-8.909e-07
1.5201e-05
-5.52216e-07
1.54944e-05
-2.93405e-07
1.5602e-05
-1.07643e-07
1.55856e-05
1.63845e-08
1.54945e-05
9.11339e-08
1.53658e-05
1.28754e-07
1.5226e-05
1.39706e-07
1.50931e-05
1.32988e-07
1.49771e-05
1.15917e-07
1.4883e-05
9.4104e-08
1.48115e-05
7.1564e-08
1.47606e-05
5.09039e-08
1.4727e-05
3.35509e-08
1.4707e-05
2.0023e-08
1.46968e-05
1.02075e-08
1.46932e-05
3.61513e-09
1.46936e-05
-4.1311e-10
1.46961e-05
-2.55201e-09
1.46996e-05
-3.41726e-09
1.4703e-05
-3.48856e-09
1.47062e-05
-3.12642e-09
1.47087e-05
-2.57869e-09
1.47107e-05
-1.99885e-09
1.47122e-05
-1.47089e-09
1.47132e-05
-1.03205e-09
1.47139e-05
-6.90625e-10
1.47144e-05
-4.39056e-10
1.47146e-05
-2.62696e-10
1.47148e-05
-1.45207e-10
1.47149e-05
-7.15256e-11
1.47149e-05
-2.92196e-11
1.47149e-05
-8.92917e-12
1.47149e-05
-4.26873e-12
-1.02459e-11
-1.91574e-06
3.52644e-06
-1.4606e-06
4.21995e-07
1.65769e-06
-3.83833e-06
6.61153e-06
-6.94688e-06
1.24408e-05
-8.50591e-06
1.833e-05
-8.74279e-06
2.37403e-05
-8.07001e-06
2.83723e-05
-6.88999e-06
3.21108e-05
-5.51674e-06
3.49656e-05
-4.16129e-06
3.70217e-05
-2.94698e-06
3.84016e-05
-1.93214e-06
3.924e-05
-1.13176e-06
3.96672e-05
-5.34847e-07
3.98002e-05
-1.1658e-07
3.97385e-05
1.52804e-07
3.95614e-05
3.05891e-07
3.93298e-05
3.71307e-07
3.90871e-05
3.75666e-07
3.88615e-05
3.41504e-07
3.86688e-05
2.86836e-07
3.85152e-05
2.25122e-07
3.84006e-05
1.65551e-07
3.83205e-05
1.13593e-07
3.82688e-05
7.17542e-08
3.82386e-05
4.03999e-08
3.82237e-05
1.85428e-08
3.82188e-05
4.49982e-09
3.82198e-05
-3.58729e-09
3.82239e-05
-7.52679e-09
3.82292e-05
-8.75161e-09
3.82344e-05
-8.38819e-09
3.82391e-05
-7.23399e-09
3.82429e-05
-5.8052e-09
3.82458e-05
-4.40405e-09
3.8248e-05
-3.18324e-09
3.82495e-05
-2.19897e-09
3.82505e-05
-1.45108e-09
3.82511e-05
-9.10978e-10
3.82515e-05
-5.39471e-10
3.82518e-05
-2.97149e-10
3.82519e-05
-1.4963e-10
3.82519e-05
-6.95588e-11
3.8252e-05
-3.66263e-11
-3.5064e-11
5.7903e-09
3.52065e-06
3.86816e-06
-3.44038e-06
1.0428e-05
-1.03981e-05
1.80791e-05
-1.45981e-05
2.57617e-05
-1.61885e-05
3.28705e-05
-1.58516e-05
3.90824e-05
-1.42819e-05
4.42653e-05
-1.20729e-05
4.84129e-05
-9.66431e-06
5.15962e-05
-7.34463e-06
5.39291e-05
-5.27982e-06
5.5544e-05
-3.54713e-06
5.65772e-05
-2.16494e-06
5.71584e-05
-1.11607e-06
5.74058e-05
-3.63942e-07
5.74212e-05
1.37373e-07
5.72893e-05
4.37762e-07
5.7078e-05
5.82611e-07
5.68377e-05
6.16023e-07
5.66029e-05
5.76307e-07
5.63948e-05
4.9497e-07
5.62236e-05
3.96249e-07
5.60919e-05
2.97235e-07
5.5997e-05
2.08581e-07
5.59331e-05
1.35654e-07
5.58936e-05
7.98975e-08
5.58719e-05
4.01863e-08
5.58624e-05
1.3998e-08
5.58605e-05
-1.69217e-09
5.58629e-05
-9.9163e-09
5.58673e-05
-1.31141e-08
5.58722e-05
-1.3274e-08
5.58767e-05
-1.1825e-08
5.58807e-05
-9.71308e-09
5.58838e-05
-7.51107e-09
5.58861e-05
-5.525e-09
5.58878e-05
-3.88476e-09
5.58889e-05
-2.61405e-09
5.58897e-05
-1.68009e-09
5.58902e-05
-1.02607e-09
5.58905e-05
-5.90564e-10
5.58907e-05
-3.17804e-10
5.58908e-05
-1.62029e-10
5.58908e-05
-8.80277e-11
-6.90724e-11
5.93652e-06
-2.41587e-06
1.55604e-05
-1.30642e-05
2.59367e-05
-2.07745e-05
3.53103e-05
-2.39716e-05
4.32408e-05
-2.4119e-05
4.97334e-05
-2.23442e-05
5.49271e-05
-1.94756e-05
5.89964e-05
-1.61423e-05
6.21175e-05
-1.27854e-05
6.44526e-05
-9.67969e-06
6.61449e-05
-6.97219e-06
6.73186e-05
-4.72075e-06
6.80803e-05
-2.9267e-06
6.85227e-05
-1.55847e-06
6.87262e-05
-5.67401e-07
6.87603e-05
1.03245e-07
6.86813e-05
5.16728e-07
6.85384e-05
7.25575e-07
6.83681e-05
7.8632e-07
6.81968e-05
7.47608e-07
6.80414e-05
6.50321e-07
6.79111e-05
5.26564e-07
6.78089e-05
3.99469e-07
6.77336e-05
2.83838e-07
6.76818e-05
1.87491e-07
6.76487e-05
1.12959e-07
6.76297e-05
5.92236e-08
6.76204e-05
2.32637e-08
6.76174e-05
1.34845e-09
6.76181e-05
-1.06384e-08
6.76207e-05
-1.56773e-08
6.76239e-05
-1.65002e-08
6.76271e-05
-1.50181e-08
6.76299e-05
-1.25174e-08
6.76322e-05
-9.79147e-09
6.76339e-05
-7.27581e-09
6.76352e-05
-5.16656e-09
6.76361e-05
-3.51335e-09
6.76367e-05
-2.2858e-09
6.76371e-05
-1.41756e-09
6.76373e-05
-8.32941e-10
6.76375e-05
-4.61411e-10
6.76376e-05
-2.4405e-10
6.76376e-05
-1.34835e-10
-9.90503e-11
2.23199e-05
-2.47357e-05
3.92743e-05
-3.00187e-05
5.07418e-05
-3.22419e-05
5.87039e-05
-3.19337e-05
6.41234e-05
-2.95385e-05
6.77231e-05
-2.59439e-05
7.00718e-05
-2.18243e-05
7.15823e-05
-1.76528e-05
7.25436e-05
-1.37466e-05
7.31515e-05
-1.02876e-05
7.35334e-05
-7.35412e-06
7.37684e-05
-4.95569e-06
7.39039e-05
-3.06227e-06
7.39692e-05
-1.62368e-06
7.39833e-05
-5.81518e-07
7.39604e-05
1.26103e-07
7.39126e-05
5.64572e-07
7.38506e-05
7.87537e-07
7.37835e-05
8.53404e-07
7.37184e-05
8.12778e-07
7.366e-05
7.08721e-07
7.36111e-05
5.75466e-07
7.35726e-05
4.37961e-07
7.3544e-05
3.12356e-07
7.35242e-05
2.07315e-07
7.35114e-05
1.25765e-07
7.35039e-05
6.67465e-08
7.35001e-05
2.70797e-08
7.34987e-05
2.73007e-09
7.34987e-05
-1.06961e-08
7.34996e-05
-1.64912e-08
7.35007e-05
-1.76076e-08
7.35018e-05
-1.61478e-08
7.35028e-05
-1.35267e-08
7.35036e-05
-1.06221e-08
7.35043e-05
-7.91952e-09
7.35048e-05
-5.64178e-09
7.35051e-05
-3.84949e-09
7.35053e-05
-2.51416e-09
7.35055e-05
-1.5666e-09
7.35056e-05
-9.26297e-10
7.35056e-05
-5.17514e-10
7.35056e-05
-2.76615e-10
7.35057e-05
-1.53672e-10
-1.11024e-10
7.98151e-05
-2.70689e-05
8.3289e-05
-3.34926e-05
8.5088e-05
-3.4041e-05
8.53299e-05
-3.21756e-05
8.44933e-05
-2.87019e-05
8.29748e-05
-2.44254e-05
8.11459e-05
-1.99954e-05
7.93025e-05
-1.58094e-05
7.76353e-05
-1.20795e-05
7.62425e-05
-8.89473e-06
7.51534e-05
-6.26504e-06
7.43537e-05
-4.15597e-06
7.38045e-05
-2.51314e-06
7.34573e-05
-1.27649e-06
7.3263e-05
-3.87187e-07
7.3176e-05
2.13061e-07
7.3162e-05
5.78599e-07
7.31907e-05
7.58895e-07
7.32408e-05
8.03247e-07
7.32979e-05
7.55691e-07
7.33527e-05
6.5391e-07
7.34002e-05
5.28e-07
7.34382e-05
3.99935e-07
7.34667e-05
2.83902e-07
7.34866e-05
1.8741e-07
7.34995e-05
1.12844e-07
7.35071e-05
5.91181e-08
7.3511e-05
2.31811e-08
7.35125e-05
1.29178e-09
7.35124e-05
-1.06775e-08
7.35116e-05
-1.57012e-08
7.35106e-05
-1.6514e-08
7.35094e-05
-1.50255e-08
7.35084e-05
-1.25211e-08
7.35076e-05
-9.79313e-09
7.3507e-05
-7.27644e-09
7.35065e-05
-5.16671e-09
7.35061e-05
-3.51332e-09
7.35059e-05
-2.28573e-09
7.35058e-05
-1.41749e-09
7.35057e-05
-8.32893e-10
7.35056e-05
-4.61384e-10
7.35056e-05
-2.4405e-10
7.35056e-05
-1.34866e-10
-9.91052e-11
0.000122533
-2.16966e-05
0.000115901
-2.68609e-05
0.000108965
-2.71052e-05
0.000101816
-2.50263e-05
9.49149e-05
-2.18007e-05
8.86106e-05
-1.81211e-05
8.31087e-05
-1.44935e-05
7.85094e-05
-1.12101e-05
7.48213e-05
-8.39133e-06
7.19831e-05
-6.05655e-06
6.98926e-05
-4.17454e-06
6.84297e-05
-2.69308e-06
6.74724e-05
-1.55585e-06
6.69063e-05
-7.10326e-07
6.66293e-05
-1.10177e-07
6.65546e-05
2.87734e-07
6.66119e-05
5.21246e-07
6.67443e-05
6.26486e-07
6.69098e-05
6.37794e-07
6.7079e-05
5.86464e-07
6.72336e-05
4.99374e-07
6.73636e-05
3.97961e-07
6.74658e-05
2.97761e-07
6.7541e-05
2.08622e-07
6.75929e-05
1.35524e-07
6.7626e-05
7.97312e-08
6.76451e-05
4.00371e-08
6.76544e-05
1.38825e-08
6.76575e-05
-1.77354e-09
6.76568e-05
-9.96971e-09
6.76542e-05
-1.31468e-08
6.7651e-05
-1.32926e-08
6.76478e-05
-1.18349e-08
6.7645e-05
-9.7179e-09
6.76427e-05
-7.51315e-09
6.7641e-05
-5.52573e-09
6.76397e-05
-3.8849e-09
6.76388e-05
-2.61398e-09
6.76382e-05
-1.67997e-09
6.76378e-05
-1.02597e-09
6.76376e-05
-5.90499e-10
6.76374e-05
-3.1777e-10
6.76373e-05
-1.6203e-10
6.76373e-05
-8.80726e-11
-6.91526e-11
0.000129032
-1.45361e-05
0.000118839
-1.6668e-05
0.000107936
-1.62025e-05
9.7305e-05
-1.43953e-05
8.7616e-05
-1.21118e-05
7.92624e-05
-9.76747e-06
7.23695e-05
-7.60056e-06
6.68902e-05
-5.73081e-06
6.26846e-05
-4.18567e-06
5.95715e-05
-2.94347e-06
5.73618e-05
-1.96486e-06
5.5877e-05
-1.20822e-06
5.49572e-05
-6.3607e-07
5.44638e-05
-2.16962e-07
5.42791e-05
7.45568e-08
5.43052e-05
2.61639e-07
5.44625e-05
3.63946e-07
5.46884e-05
4.00518e-07
5.49367e-05
3.89529e-07
5.51755e-05
3.47695e-07
5.53854e-05
2.89409e-07
5.55573e-05
2.26075e-07
5.56893e-05
1.65811e-07
5.57843e-05
1.13575e-07
5.58482e-05
7.16391e-08
5.58877e-05
4.02676e-08
5.59093e-05
1.84265e-08
5.59188e-05
4.4104e-09
5.59206e-05
-3.64991e-09
5.59182e-05
-7.56724e-09
5.59139e-05
-8.77591e-09
5.5909e-05
-8.4017e-09
5.59044e-05
-7.24088e-09
5.59005e-05
-5.80836e-09
5.58974e-05
-4.40528e-09
5.5895e-05
-3.18357e-09
5.58933e-05
-2.19895e-09
5.58922e-05
-1.45097e-09
5.58914e-05
-9.10869e-10
5.58909e-05
-5.39392e-10
5.58906e-05
-2.97096e-10
5.58904e-05
-1.49599e-10
5.58904e-05
-6.95535e-11
5.58903e-05
-3.66576e-11
-3.51286e-11
0.000101464
-6.00151e-06
9.08885e-05
-6.09234e-06
8.01662e-05
-5.48027e-06
7.03265e-05
-4.55558e-06
6.18396e-05
-3.62487e-06
5.48641e-05
-2.79199e-06
4.93514e-05
-2.08792e-06
4.51382e-05
-1.51757e-06
4.20205e-05
-1.06801e-06
3.97961e-05
-7.19049e-07
3.82824e-05
-4.51197e-07
3.73225e-05
-2.48279e-07
3.67841e-05
-9.77065e-08
3.65569e-05
1.02809e-08
3.65488e-05
8.26732e-08
3.66844e-05
1.26049e-07
3.69025e-05
1.45865e-07
3.71555e-05
1.47512e-07
3.74087e-05
1.36316e-07
3.76391e-05
1.17252e-07
3.78339e-05
9.46053e-08
3.79883e-05
7.17296e-08
3.81032e-05
5.09327e-08
3.81832e-05
3.35225e-08
3.82349e-05
1.99734e-08
3.8265e-05
1.01552e-08
3.82798e-05
3.56984e-09
3.82847e-05
-4.47604e-10
3.82836e-05
-2.57582e-09
3.82795e-05
-3.43225e-09
3.82742e-05
-3.4972e-09
3.82689e-05
-3.13096e-09
3.82643e-05
-2.58081e-09
3.82605e-05
-1.99968e-09
3.82575e-05
-1.47113e-09
3.82554e-05
-1.03205e-09
3.82539e-05
-6.9057e-10
3.82529e-05
-4.3901e-10
3.82522e-05
-2.62672e-10
3.82518e-05
-1.45199e-10
3.82516e-05
-7.15214e-11
3.82515e-05
-2.92148e-11
3.82514e-05
-8.92883e-12
3.82514e-05
-4.27886e-12
-1.02695e-11
4.24207e-05
3.63283e-05
3.08481e-05
2.62925e-05
2.26676e-05
1.98756e-05
1.77877e-05
1.62701e-05
1.52021e-05
1.44831e-05
1.40319e-05
1.37836e-05
1.36859e-05
1.36962e-05
1.37789e-05
1.39049e-05
1.40508e-05
1.41983e-05
1.43346e-05
1.44519e-05
1.45465e-05
1.46182e-05
1.46691e-05
1.47026e-05
1.47226e-05
1.47328e-05
1.47363e-05
1.47359e-05
1.47333e-05
1.47299e-05
1.47264e-05
1.47233e-05
1.47207e-05
1.47187e-05
1.47172e-05
1.47162e-05
1.47155e-05
1.4715e-05
1.47148e-05
1.47146e-05
1.47146e-05
1.47145e-05
1.47145e-05
1.47145e-05
)
;

boundaryField
{
    fixedWalls
    {
        type            calculated;
        value           uniform 0;
    }
    inflowWall
    {
        type            calculated;
        value           nonuniform List<scalar> 5(-0.0001 -0.0001 -0.0001 -0.0001 -0.0001);
    }
    outflowWall
    {
        type            calculated;
        value           nonuniform List<scalar> 10(1.47149e-05 3.8252e-05 5.58908e-05 6.76376e-05 7.35057e-05 7.35055e-05 6.76373e-05 5.58903e-05 3.82514e-05 1.47145e-05);
    }
    frontAndBack
    {
        type            empty;
        value           nonuniform List<scalar> 0();
    }
}


// ************************************************************************* //
