/*--------------------------------*- C++ -*----------------------------------*\
| =========                 |                                                 |
| \\      /  F ield         | OpenFOAM: The Open Source CFD Toolbox           |
|  \\    /   O peration     | Version:  2306                                  |
|   \\  /    A nd           | Website:  www.openfoam.com                      |
|    \\/     M anipulation  |                                                 |
\*---------------------------------------------------------------------------*/
FoamFile
{
    version     2.0;
    format      ascii;
    arch        "LSB;label=32;scalar=64";
    class       volVectorField;
    location    "0.19";
    object      U;
}
// * * * * * * * * * * * * * * * * * * * * * * * * * * * * * * * * * * * * * //

dimensions      [0 1 -1 0 0 0 0];

internalField   nonuniform List<vector> 
475
(
(0.814401 0.100524 0)
(0.775466 0.0919071 0)
(0.700523 0.043552 0)
(0.669136 -0.00180967 0)
(0.669178 -0.0672262 0)
(1.01651 0.130048 0)
(1.13259 0.125192 0)
(1.20455 0.058963 0)
(1.24618 -0.0105455 0)
(1.26546 -0.104158 0)
(1.0341 -0.00829432 0)
(1.18114 -0.023075 0)
(1.29871 -0.0416686 0)
(1.36207 -0.0693639 0)
(1.37638 -0.116661 0)
(1.01508 -0.141437 0)
(1.11957 -0.157295 0)
(1.16703 -0.118737 0)
(1.16575 -0.0950723 0)
(1.13254 -0.0925253 0)
(0.81272 -0.103759 0)
(0.760475 -0.10166 0)
(0.656267 -0.0637314 0)
(0.571924 -0.0402701 0)
(0.512347 -0.0299145 0)
(-0.00925688 0.00818572 0)
(-0.0232824 0.00606355 0)
(-0.0240154 -0.000433378 0)
(-0.00964736 -0.00599369 0)
(0.0147991 -0.00906863 0)
(0.0433802 -0.00999571 0)
(0.0714385 -0.00932261 0)
(0.0962735 -0.00776831 0)
(0.116528 -0.00591293 0)
(0.131907 -0.00412833 0)
(0.142783 -0.00260902 0)
(0.14986 -0.0014242 0)
(0.153945 -0.000567156 0)
(0.155819 6.64757e-06 0)
(0.156164 0.000354587 0)
(0.155536 0.000533198 0)
(0.154368 0.000592945 0)
(0.152976 0.00057369 0)
(0.15158 0.000507266 0)
(0.150318 0.000417863 0)
(0.14926 0.000322799 0)
(0.148431 0.000233583 0)
(0.147823 0.000156944 0)
(0.147407 9.58353e-05 0)
(0.147146 5.0454e-05 0)
(0.147002 1.92122e-05 0)
(0.146939 -4.1903e-07 0)
(0.146927 -1.12469e-05 0)
(0.146945 -1.59083e-05 0)
(0.146977 -1.66655e-05 0)
(0.147013 -1.5191e-05 0)
(0.147047 -1.26836e-05 0)
(0.147075 -9.9227e-06 0)
(0.147098 -7.35276e-06 0)
(0.147116 -5.18375e-06 0)
(0.147128 -3.47682e-06 0)
(0.147136 -2.20784e-06 0)
(0.147142 -1.31177e-06 0)
(0.147145 -7.1087e-07 0)
(0.147147 -3.30875e-07 0)
(0.147148 -1.08898e-07 0)
(0.147149 3.74284e-09 0)
(0.147149 4.11666e-08 0)
(0.147149 2.37147e-08 0)
(0.147149 -2.82504e-08 0)
(-0.012829 0.0268663 0)
(-0.0236378 0.011848 0)
(-0.00396041 -0.0154582 0)
(0.0387829 -0.037027 0)
(0.0946541 -0.0486704 0)
(0.154528 -0.0515049 0)
(0.211785 -0.0480108 0)
(0.262379 -0.0409371 0)
(0.304337 -0.0324791 0)
(0.337218 -0.0241064 0)
(0.361569 -0.0166626 0)
(0.378485 -0.0105294 0)
(0.389294 -0.00578548 0)
(0.395351 -0.00233405 0)
(0.397909 7.17613e-06 0)
(0.398062 0.00145133 0)
(0.396705 0.00220747 0)
(0.394539 0.00246311 0)
(0.392083 0.00238216 0)
(0.38969 0.00209962 0)
(0.387572 0.00172014 0)
(0.385833 0.00131948 0)
(0.384497 0.00094744 0)
(0.383535 0.000631921 0)
(0.382891 0.000383843 0)
(0.382496 0.000202241 0)
(0.382283 7.8961e-05 0)
(0.382194 2.49708e-06 0)
(0.382182 -3.92549e-05 0)
(0.382213 -5.72794e-05 0)
(0.382264 -6.03265e-05 0)
(0.382318 -5.50141e-05 0)
(0.382369 -4.59313e-05 0)
(0.382412 -3.59564e-05 0)
(0.382445 -2.66989e-05 0)
(0.38247 -1.89047e-05 0)
(0.382488 -1.2779e-05 0)
(0.382501 -8.22426e-06 0)
(0.382509 -5.00214e-06 0)
(0.382514 -2.83389e-06 0)
(0.382517 -1.4566e-06 0)
(0.382518 -6.49823e-07 0)
(0.382519 -2.44292e-07 0)
(0.38252 -1.207e-07 0)
(0.38252 -1.81955e-07 0)
(-0.00603538 0.0408687 0)
(0.00774856 -0.00398431 0)
(0.0677352 -0.0619835 0)
(0.14238 -0.101435 0)
(0.220358 -0.119825 0)
(0.294982 -0.121257 0)
(0.361924 -0.111226 0)
(0.418994 -0.0948861 0)
(0.465576 -0.076203 0)
(0.502053 -0.0578354 0)
(0.529391 -0.0413446 0)
(0.548854 -0.0274835 0)
(0.561808 -0.0164616 0)
(0.569604 -0.00815625 0)
(0.573494 -0.00226377 0)
(0.57459 0.00160383 0)
(0.573827 0.0038566 0)
(0.57197 0.00488362 0)
(0.56961 0.00504377 0)
(0.567167 0.00464662 0)
(0.564915 0.00394306 0)
(0.563003 0.00312291 0)
(0.56149 0.00231758 0)
(0.560366 0.0016069 0)
(0.559586 0.00102916 0)
(0.559084 0.000592283 0)
(0.558793 0.000284735 0)
(0.558649 8.47421e-05 0)
(0.558601 -3.28209e-05 0)
(0.55861 -9.20546e-05 0)
(0.558648 -0.000112859 0)
(0.558697 -0.000110768 0)
(0.558745 -9.69184e-05 0)
(0.558789 -7.86046e-05 0)
(0.558824 -6.01639e-05 0)
(0.558851 -4.38478e-05 0)
(0.558871 -3.05485e-05 0)
(0.558885 -2.03522e-05 0)
(0.558894 -1.29272e-05 0)
(0.5589 -7.77587e-06 0)
(0.558904 -4.38157e-06 0)
(0.558906 -2.28541e-06 0)
(0.558907 -1.11681e-06 0)
(0.558908 -5.95489e-07 0)
(0.558908 -5.0661e-07 0)
(0.0358054 0.0429801 0)
(0.0982229 -0.0629238 0)
(0.207951 -0.148417 0)
(0.310272 -0.191796 0)
(0.396519 -0.203907 0)
(0.467938 -0.195123 0)
(0.525873 -0.17363 0)
(0.571789 -0.145883 0)
(0.607395 -0.116568 0)
(0.63438 -0.0887255 0)
(0.654263 -0.064076 0)
(0.668367 -0.0433988 0)
(0.67784 -0.0268533 0)
(0.683673 -0.0142234 0)
(0.686733 -0.00508666 0)
(0.687773 0.00107822 0)
(0.687423 0.0048246 0)
(0.686211 0.0067018 0)
(0.684568 0.00722172 0)
(0.682807 0.00683689 0)
(0.681143 0.00592507 0)
(0.6797 0.00478051 0)
(0.678535 0.00361336 0)
(0.677653 0.00255684 0)
(0.677028 0.00168023 0)
(0.676614 0.00100475 0)
(0.676364 0.000519737 0)
(0.676232 0.00019668 0)
(0.676177 1.88864e-07 0)
(0.676171 -0.000104529 0)
(0.676191 -0.000147773 0)
(0.676222 -0.000153351 0)
(0.676255 -0.000138529 0)
(0.676286 -0.000114885 0)
(0.676311 -8.95195e-05 0)
(0.676332 -6.62972e-05 0)
(0.676347 -4.69265e-05 0)
(0.676357 -3.18028e-05 0)
(0.676365 -2.06105e-05 0)
(0.676369 -1.27196e-05 0)
(0.676372 -7.42506e-06 0)
(0.676374 -4.07553e-06 0)
(0.676375 -2.13029e-06 0)
(0.676376 -1.16921e-06 0)
(0.676376 -8.75496e-07 0)
(0.195992 -0.120184 0)
(0.306952 -0.222161 0)
(0.4515 -0.276018 0)
(0.553625 -0.291389 0)
(0.61928 -0.279891 0)
(0.66241 -0.252181 0)
(0.690953 -0.216078 0)
(0.709537 -0.177218 0)
(0.72143 -0.139493 0)
(0.728979 -0.105288 0)
(0.733753 -0.0758062 0)
(0.736737 -0.0514342 0)
(0.738532 -0.0320507 0)
(0.739498 -0.0172505 0)
(0.739864 -0.00648545 0)
(0.739793 0.000852272 0)
(0.739413 0.00537841 0)
(0.73884 0.00771729 0)
(0.738175 0.00844709 0)
(0.737499 0.00808493 0)
(0.736872 0.00707051 0)
(0.736331 0.0057526 0)
(0.735894 0.00438491 0)
(0.735561 0.00313183 0)
(0.735323 0.00208187 0)
(0.735164 0.00126549 0)
(0.735066 0.000673819 0)
(0.735013 0.000275398 0)
(0.734989 2.94492e-05 0)
(0.734985 -0.000104698 0)
(0.73499 -0.000163306 0)
(0.735001 -0.000175075 0)
(0.735012 -0.00016092 0)
(0.735023 -0.000135008 0)
(0.735033 -0.000106147 0)
(0.73504 -7.9226e-05 0)
(0.735046 -5.64978e-05 0)
(0.73505 -3.85897e-05 0)
(0.735052 -2.52324e-05 0)
(0.735054 -1.57436e-05 0)
(0.735055 -9.32401e-06 0)
(0.735056 -5.21978e-06 0)
(0.735056 -2.79617e-06 0)
(0.735057 -1.55456e-06 0)
(0.735057 -1.11961e-06 0)
(0.831665 -0.30097 0)
(0.829851 -0.351759 0)
(0.842777 -0.357972 0)
(0.853969 -0.341521 0)
(0.851205 -0.308303 0)
(0.838243 -0.26578 0)
(0.820547 -0.220302 0)
(0.801683 -0.176165 0)
(0.783898 -0.13598 0)
(0.76853 -0.101079 0)
(0.756163 -0.0718782 0)
(0.746826 -0.0482225 0)
(0.740215 -0.0296547 0)
(0.735867 -0.0155896 0)
(0.733281 -0.00540666 0)
(0.731976 0.00150978 0)
(0.731551 0.00575964 0)
(0.731684 0.00792683 0)
(0.732122 0.00855588 0)
(0.732687 0.00813812 0)
(0.733263 0.00709478 0)
(0.733783 0.00576267 0)
(0.734214 0.00438842 0)
(0.734545 0.00313253 0)
(0.734784 0.00208153 0)
(0.734945 0.00126487 0)
(0.735044 0.000673214 0)
(0.735098 0.000274915 0)
(0.735122 2.90948e-05 0)
(0.735127 -0.000104931 0)
(0.735122 -0.000163449 0)
(0.735111 -0.000175158 0)
(0.7351 -0.000160965 0)
(0.735089 -0.000135031 0)
(0.73508 -0.000106158 0)
(0.735072 -7.92303e-05 0)
(0.735067 -5.6499e-05 0)
(0.735063 -3.85898e-05 0)
(0.73506 -2.52321e-05 0)
(0.735058 -1.57432e-05 0)
(0.735057 -9.32375e-06 0)
(0.735056 -5.21964e-06 0)
(0.735056 -2.79617e-06 0)
(0.735056 -1.55474e-06 0)
(0.735056 -1.11993e-06 0)
(1.27148 -0.249606 0)
(1.20487 -0.310174 0)
(1.12611 -0.317952 0)
(1.05286 -0.298488 0)
(0.982354 -0.26367 0)
(0.915754 -0.221937 0)
(0.856249 -0.179576 0)
(0.805648 -0.140363 0)
(0.76436 -0.106095 0)
(0.731988 -0.0773223 0)
(0.707654 -0.0538894 0)
(0.690205 -0.0352984 0)
(0.678406 -0.0209368 0)
(0.67106 -0.0101959 0)
(0.667077 -0.0025129 0)
(0.665512 0.00262606 0)
(0.66558 0.00570622 0)
(0.666648 0.00717709 0)
(0.668224 0.00746376 0)
(0.669954 0.00695292 0)
(0.671607 0.00597691 0)
(0.673046 0.00480148 0)
(0.67421 0.00362035 0)
(0.675093 0.00255797 0)
(0.675719 0.00167921 0)
(0.676133 0.0010032 0)
(0.676384 0.000518284 0)
(0.676517 0.000195535 0)
(0.676571 -6.32156e-07 0)
(0.676578 -0.000105069 0)
(0.676558 -0.000148106 0)
(0.676527 -0.000153544 0)
(0.676494 -0.000138633 0)
(0.676463 -0.000114937 0)
(0.676438 -8.95429e-05 0)
(0.676417 -6.63062e-05 0)
(0.676402 -4.69289e-05 0)
(0.676392 -3.18026e-05 0)
(0.676384 -2.06096e-05 0)
(0.67638 -1.27188e-05 0)
(0.676377 -7.42442e-06 0)
(0.676375 -4.07518e-06 0)
(0.676374 -2.13029e-06 0)
(0.676373 -1.16965e-06 0)
(0.676373 -8.76283e-07 0)
(1.34028 -0.185152 0)
(1.24906 -0.219725 0)
(1.13601 -0.219222 0)
(1.02446 -0.199413 0)
(0.921643 -0.170861 0)
(0.83092 -0.139736 0)
(0.754564 -0.109993 0)
(0.692941 -0.0837535 0)
(0.644945 -0.0617295 0)
(0.608828 -0.043835 0)
(0.582674 -0.0296371 0)
(0.564619 -0.0186037 0)
(0.552962 -0.0102253 0)
(0.546209 -0.0040598 0)
(0.543081 0.000266451 0)
(0.542503 0.0030762 0)
(0.543592 0.00466411 0)
(0.54564 0.00530163 0)
(0.548106 0.00524793 0)
(0.550602 0.00474039 0)
(0.55288 0.0039831 0)
(0.554803 0.00313822 0)
(0.556321 0.00232212 0)
(0.557446 0.00160709 0)
(0.558227 0.00102782 0)
(0.558728 0.00059063 0)
(0.559019 0.000283261 0)
(0.559163 8.36023e-05 0)
(0.559211 -3.36205e-05 0)
(0.559202 -9.25775e-05 0)
(0.559163 -0.000113177 0)
(0.559115 -0.000110948 0)
(0.559066 -9.70132e-05 0)
(0.559023 -7.86499e-05 0)
(0.558987 -6.01828e-05 0)
(0.55896 -4.3854e-05 0)
(0.55894 -3.05493e-05 0)
(0.558926 -2.03512e-05 0)
(0.558917 -1.2926e-05 0)
(0.558911 -7.77485e-06 0)
(0.558907 -4.38086e-06 0)
(0.558905 -2.285e-06 0)
(0.558904 -1.11675e-06 0)
(0.558903 -5.95892e-07 0)
(0.558903 -5.07417e-07 0)
(1.06542 -0.105406 0)
(0.966454 -0.109931 0)
(0.855488 -0.100983 0)
(0.750033 -0.0856034 0)
(0.657487 -0.0691632 0)
(0.580032 -0.0538811 0)
(0.517805 -0.0406695 0)
(0.469589 -0.0298099 0)
(0.433413 -0.0211634 0)
(0.407159 -0.0144077 0)
(0.388871 -0.00920117 0)
(0.376847 -0.00524585 0)
(0.369645 -0.00230266 0)
(0.36606 -0.000186462 0)
(0.365084 0.00124903 0)
(0.365886 0.00212431 0)
(0.367784 0.00254833 0)
(0.370239 0.00262456 0)
(0.372839 0.00245377 0)
(0.375301 0.00212935 0)
(0.377448 0.00173157 0)
(0.3792 0.00132329 0)
(0.38054 0.000948159 0)
(0.381502 0.000631427 0)
(0.382146 0.00038294 0)
(0.382541 0.000201301 0)
(0.382752 7.81541e-05 0)
(0.382841 1.88327e-06 0)
(0.382852 -3.96789e-05 0)
(0.38282 -5.75494e-05 0)
(0.38277 -6.04848e-05 0)
(0.382715 -5.50991e-05 0)
(0.382665 -4.59725e-05 0)
(0.382622 -3.59736e-05 0)
(0.382588 -2.67044e-05 0)
(0.382563 -1.89052e-05 0)
(0.382545 -1.27779e-05 0)
(0.382533 -8.2231e-06 0)
(0.382525 -5.00127e-06 0)
(0.38252 -2.83332e-06 0)
(0.382517 -1.4562e-06 0)
(0.382515 -6.49512e-07 0)
(0.382514 -2.44117e-07 0)
(0.382514 -1.20789e-07 0)
(0.382514 -1.82379e-07 0)
(0.455387 -0.0271274 0)
(0.394107 -0.0243839 0)
(0.33495 -0.0196751 0)
(0.28411 -0.0147266 0)
(0.243106 -0.0106474 0)
(0.211149 -0.00751892 0)
(0.186956 -0.00517523 0)
(0.16916 -0.0034547 0)
(0.156452 -0.00220432 0)
(0.147709 -0.00129444 0)
(0.142018 -0.000630534 0)
(0.138653 -0.000148545 0)
(0.137033 0.000193902 0)
(0.136687 0.000424629 0)
(0.137227 0.000564025 0)
(0.138332 0.000627614 0)
(0.13974 0.000629633 0)
(0.141243 0.000584995 0)
(0.142687 0.00050929 0)
(0.143969 0.000417405 0)
(0.145034 0.000322121 0)
(0.145865 0.000233133 0)
(0.146474 0.000156651 0)
(0.14689 9.55909e-05 0)
(0.14715 5.02187e-05 0)
(0.147294 1.8994e-05 0)
(0.147357 -6.01253e-07 0)
(0.147368 -1.13831e-05 0)
(0.14735 -1.59994e-05 0)
(0.147317 -1.67203e-05 0)
(0.147281 -1.52204e-05 0)
(0.147248 -1.26972e-05 0)
(0.147219 -9.92777e-06 0)
(0.147196 -7.35373e-06 0)
(0.147179 -5.18316e-06 0)
(0.147166 -3.47592e-06 0)
(0.147158 -2.20714e-06 0)
(0.147152 -1.31137e-06 0)
(0.147149 -7.10692e-07 0)
(0.147147 -3.3081e-07 0)
(0.147146 -1.08844e-07 0)
(0.147145 3.83505e-09 0)
(0.147145 4.12783e-08 0)
(0.147145 2.37692e-08 0)
(0.147145 -2.83293e-08 0)
)
;

boundaryField
{
    fixedWalls
    {
        type            noSlip;
    }
    inflowWall
    {
        type            fixedValue;
        value           uniform (1 0 0);
    }
    outflowWall
    {
        type            zeroGradient;
    }
    frontAndBack
    {
        type            empty;
    }
}


// ************************************************************************* //
