/*--------------------------------*- C++ -*----------------------------------*\
| =========                 |                                                 |
| \\      /  F ield         | OpenFOAM: The Open Source CFD Toolbox           |
|  \\    /   O peration     | Version:  2306                                  |
|   \\  /    A nd           | Website:  www.openfoam.com                      |
|    \\/     M anipulation  |                                                 |
\*---------------------------------------------------------------------------*/
FoamFile
{
    version     2.0;
    format      ascii;
    arch        "LSB;label=32;scalar=64";
    class       volScalarField;
    location    "0.58";
    object      p;
}
// * * * * * * * * * * * * * * * * * * * * * * * * * * * * * * * * * * * * * //

dimensions      [0 2 -2 0 0 0 0];

internalField   nonuniform List<scalar> 
47500
(
14.2636
8.31621
5.39832
4.19506
3.55692
3.16771
2.91735
2.74435
2.6161
2.51602
2.43489
2.36714
2.30914
2.25847
2.21337
2.17262
2.13525
2.10056
2.068
2.03712
2.00757
1.97909
1.95144
1.92443
1.8979
1.87174
1.84582
1.82006
1.79438
1.76872
1.74302
1.71723
1.69133
1.66528
1.63906
1.61266
1.5861
1.5594
1.53262
1.50584
1.47923
1.45304
1.42765
1.40368
1.38191
1.36304
1.3475
1.33363
1.28845
1.04331
9.49516
7.11988
5.49169
4.53471
3.89696
3.45617
3.14919
2.92827
2.76274
2.63428
2.53148
2.44693
2.37573
2.31449
2.26083
2.21302
2.16979
2.13016
2.0934
2.05893
2.02629
1.99512
1.9651
1.93601
1.90764
1.87983
1.85242
1.82532
1.7984
1.77159
1.74482
1.71801
1.69112
1.66409
1.63687
1.60945
1.58178
1.55384
1.52563
1.49712
1.46831
1.43917
1.40962
1.37946
1.34807
1.31389
1.27376
1.22204
1.13981
0.970492
6.67611
5.93532
5.12725
4.46311
3.94457
3.54971
3.25208
3.02536
2.84927
2.70959
2.59641
2.50276
2.42376
2.35587
2.29655
2.24392
2.19654
2.15336
2.11351
2.07636
2.04137
2.00812
1.97627
1.94555
1.91573
1.8866
1.85801
1.82981
1.8019
1.77415
1.7465
1.71884
1.69112
1.66327
1.63521
1.60691
1.57828
1.54927
1.51981
1.4898
1.4591
1.42751
1.39469
1.36005
1.32254
1.28022
1.22992
1.16699
1.08273
0.962378
5.23436
5.05268
4.64956
4.21698
3.83688
3.52096
3.26397
3.05624
2.88768
2.74959
2.63505
2.53871
2.45649
2.38532
2.32286
2.2673
2.21726
2.17166
2.12964
2.09053
2.05379
2.01897
1.98571
1.9537
1.92271
1.89252
1.86296
1.83387
1.80512
1.7766
1.7482
1.71983
1.6914
1.66285
1.63407
1.60501
1.57557
1.54565
1.51514
1.4839
1.45172
1.41833
1.3833
1.34601
1.30548
1.26027
1.20833
1.14716
1.07331
0.983924
4.3993
4.41403
4.22394
3.95442
3.68735
3.44495
3.23311
3.05196
2.89839
2.76821
2.65731
2.56211
2.4796
2.40736
2.34341
2.28621
2.23448
2.18722
2.14363
2.10304
2.06492
2.02882
1.99438
1.9613
1.92931
1.8982
1.86779
1.8379
1.80841
1.77918
1.75011
1.7211
1.69204
1.66285
1.63343
1.6037
1.57355
1.54286
1.51149
1.47929
1.44601
1.41138
1.37499
1.33631
1.29461
1.24897
1.19833
1.14175
1.07855
1.00978
3.87573
3.95343
3.87494
3.71217
3.5287
3.34708
3.17731
3.02421
2.88878
2.76996
2.66592
2.5746
2.49406
2.42254
2.35856
2.30084
2.24832
2.20013
2.15553
2.11392
2.07479
2.03772
2.00235
1.96839
1.93557
1.90368
1.87254
1.84196
1.81182
1.78198
1.75233
1.72274
1.69314
1.6634
1.63344
1.60316
1.57243
1.54115
1.50915
1.47629
1.44233
1.40702
1.37005
1.331
1.28943
1.24485
1.19686
1.14542
1.09109
1.03591
3.53084
3.61957
3.59624
3.50001
3.37565
3.24165
3.10817
2.98155
2.86485
2.75896
2.66361
2.57798
2.50103
2.43165
2.3688
2.31153
2.25902
2.21054
2.16546
2.12325
2.08347
2.04572
2.00966
1.97502
1.94155
1.90903
1.87728
1.84613
1.81544
1.78508
1.75493
1.72487
1.6948
1.66463
1.63424
1.60353
1.57239
1.5407
1.50832
1.4751
1.44086
1.40538
1.36845
1.32982
1.28924
1.24656
1.2018
1.15533
1.10811
1.06207
3.29073
3.37297
3.37576
3.32017
3.23651
3.13844
3.03461
2.93128
2.83224
2.73937
2.65344
2.57447
2.50212
2.43583
2.37498
2.31893
2.26706
2.21882
2.17372
2.13129
2.09117
2.05299
2.01647
1.98133
1.94736
1.91434
1.88211
1.85049
1.81935
1.78856
1.758
1.72756
1.69713
1.66661
1.6359
1.60491
1.57351
1.5416
1.50907
1.47577
1.44158
1.40635
1.36993
1.3322
1.29311
1.25269
1.21119
1.16915
1.12755
1.08793
3.11488
3.18643
3.20101
3.17012
3.11411
3.04253
2.96215
2.87844
2.79514
2.71457
2.638
2.56604
2.49882
2.43622
2.37796
2.32366
2.27293
2.22537
2.18061
2.13828
2.09808
2.05971
2.02291
1.98745
1.95312
1.91973
1.88711
1.85513
1.82363
1.7925
1.76161
1.73087
1.70017
1.66942
1.63851
1.60734
1.57584
1.54389
1.5114
1.47826
1.44439
1.40969
1.37409
1.33758
1.30019
1.2621
1.22365
1.18539
1.14821
1.11326
2.98101
3.04213
3.06147
3.04555
3.00824
2.95598
2.89381
2.82619
2.7565
2.68705
2.61935
2.5543
2.49239
2.43379
2.37848
2.32631
2.27707
2.23052
2.1864
2.14444
2.10439
2.06602
2.02912
1.99347
1.95891
1.92526
1.89237
1.8601
1.82833
1.79694
1.76582
1.73486
1.70398
1.67307
1.64206
1.61085
1.57937
1.54752
1.51524
1.48245
1.44909
1.41512
1.38054
1.34539
1.30977
1.27392
1.2382
1.20314
1.16945
1.13801
2.87619
2.92831
2.94899
2.94216
2.91749
2.87926
2.83109
2.77647
2.71827
2.65861
2.59902
2.54056
2.48388
2.42936
2.37718
2.32738
2.27989
2.23459
2.19133
2.14994
2.11023
2.07203
2.03517
1.99947
1.96479
1.93098
1.89791
1.86545
1.83348
1.80191
1.77062
1.73953
1.70854
1.67758
1.64656
1.6154
1.58405
1.55243
1.52049
1.48817
1.45547
1.42236
1.38889
1.35514
1.32125
1.28748
1.25417
1.22177
1.19088
1.16215
2.79242
2.8371
2.85751
2.85617
2.84008
2.81205
2.77458
2.73036
2.68172
2.63052
2.5782
2.52581
2.47412
2.42362
2.37462
2.3273
2.2817
2.23782
2.1956
2.15494
2.11572
2.07783
2.04113
2.00549
1.97079
1.93691
1.90374
1.87116
1.83908
1.80739
1.77601
1.74485
1.71383
1.68289
1.65194
1.62093
1.58979
1.55849
1.52698
1.49525
1.46328
1.4311
1.39877
1.36639
1.33414
1.30225
1.27103
1.24088
1.21225
1.18566
2.72447
2.76309
2.78251
2.78447
2.77425
2.75362
2.72433
2.68839
2.64763
2.60364
2.5577
2.51082
2.46377
2.41712
2.37125
2.32642
2.28279
2.24043
2.19936
2.15955
2.12094
2.08346
2.04703
2.01154
1.97692
1.94305
1.90985
1.87723
1.84509
1.81335
1.78194
1.75078
1.7198
1.68894
1.65813
1.62733
1.59649
1.56557
1.53457
1.50346
1.47227
1.44104
1.40983
1.37878
1.34803
1.31782
1.28842
1.26015
1.23338
1.2085
2.66879
2.70248
2.72062
2.72456
2.71835
2.70315
2.68011
2.65072
2.61643
2.57852
2.53812
2.49615
2.45334
2.41028
2.36741
2.32503
2.28338
2.24259
2.20273
2.16385
2.12593
2.08896
2.05287
2.01763
1.98315
1.94936
1.9162
1.8836
1.85146
1.81974
1.78835
1.75725
1.72636
1.69563
1.66502
1.63448
1.60399
1.57352
1.54305
1.51261
1.48221
1.45191
1.42179
1.39197
1.3626
1.33388
1.30604
1.27936
1.25413
1.23063
2.62287
2.65252
2.66935
2.67442
2.67099
2.65976
2.64151
2.61731
2.58829
2.55549
2.51985
2.48219
2.4432
2.40345
2.36338
2.32336
2.28364
2.24441
2.2058
2.16789
2.13073
2.09432
2.05865
2.0237
1.98943
1.95579
1.92273
1.8902
1.85812
1.82646
1.79516
1.76415
1.7334
1.70286
1.67249
1.64227
1.61216
1.58215
1.55226
1.52248
1.49287
1.46348
1.43438
1.40569
1.37756
1.35015
1.32367
1.29834
1.27438
1.25203
2.58487
2.61122
2.62679
2.63248
2.63097
2.62269
2.60811
2.58802
2.56328
2.53473
2.50314
2.46923
2.43363
2.39687
2.3594
2.32159
2.28371
2.24601
2.20864
2.17172
2.13534
2.09953
2.06433
2.02972
1.99571
1.96227
1.92936
1.89694
1.86498
1.83343
1.80225
1.77139
1.74082
1.71051
1.68042
1.65053
1.62083
1.59131
1.56199
1.53289
1.50403
1.4755
1.44735
1.41971
1.39268
1.36643
1.34113
1.31694
1.29406
1.27267
2.55343
2.57707
2.5915
2.59749
2.59732
2.59121
2.57945
2.56262
2.54135
2.51632
2.48815
2.45748
2.42484
2.39075
2.35563
2.31985
2.28371
2.24746
2.21129
2.17535
2.13975
2.10457
2.06986
2.03564
2.00193
1.96872
1.936
1.90375
1.87194
1.84054
1.80952
1.77884
1.74849
1.71843
1.68865
1.65912
1.62985
1.60083
1.57208
1.54363
1.51551
1.48778
1.46052
1.43381
1.40778
1.38255
1.35826
1.33506
1.31309
1.29249
2.52753
2.54893
2.56235
2.56846
2.56921
2.56472
2.55514
2.54087
2.52241
2.50026
2.47497
2.44704
2.41698
2.38523
2.35221
2.31827
2.28372
2.24883
2.21379
2.1788
2.14397
2.10941
2.0752
2.04139
2.00801
1.97506
1.94257
1.91052
1.87889
1.84767
1.81685
1.78639
1.75629
1.72651
1.69706
1.66791
1.63907
1.61055
1.58236
1.55453
1.52711
1.50013
1.47368
1.44784
1.4227
1.39836
1.37496
1.3526
1.3314
1.31148
2.50636
2.52594
2.53848
2.54459
2.54599
2.54271
2.5348
2.52255
2.50633
2.48654
2.46362
2.438
2.41013
2.38041
2.34923
2.31693
2.28381
2.25015
2.21617
2.18206
2.14797
2.11402
2.08031
2.04691
2.01387
1.98122
1.94897
1.91714
1.88573
1.85473
1.82413
1.79392
1.76408
1.73461
1.7055
1.67675
1.64835
1.62032
1.59268
1.56545
1.53868
1.51241
1.4867
1.46163
1.43728
1.41374
1.39111
1.36948
1.34895
1.3296
2.48931
2.50742
2.51922
2.52527
2.52712
2.52473
2.5181
2.50743
2.49299
2.4751
2.45412
2.43042
2.40438
2.37638
2.34678
2.31589
2.28404
2.25148
2.21845
2.18514
2.15174
2.11837
2.08514
2.05215
2.01945
1.9871
1.95512
1.92354
1.89237
1.86161
1.83126
1.80131
1.77177
1.74262
1.71386
1.6855
1.65754
1.63
1.60289
1.57623
1.55008
1.52446
1.49944
1.47507
1.45143
1.42859
1.40664
1.38564
1.36568
1.34682
2.47592
2.49286
2.50405
2.51002
2.51217
2.51044
2.50478
2.49532
2.48227
2.46588
2.44645
2.4243
2.39976
2.37319
2.3449
2.31522
2.28444
2.25283
2.22063
2.18805
2.15526
2.12242
2.08965
2.05705
2.0247
1.99265
1.96095
1.92963
1.89871
1.86821
1.83812
1.80846
1.77922
1.75041
1.72202
1.69406
1.66654
1.63946
1.61286
1.58676
1.56118
1.53617
1.51177
1.48805
1.46504
1.44283
1.42147
1.40103
1.38156
1.36312
2.46584
2.48187
2.49257
2.49845
2.5008
2.49955
2.4946
2.48605
2.47406
2.45882
2.4406
2.41966
2.39631
2.37087
2.34365
2.31495
2.28506
2.25424
2.22275
2.19078
2.15853
2.12616
2.09381
2.06157
2.02954
1.99779
1.96638
1.93533
1.90468
1.87445
1.84464
1.81528
1.78636
1.75789
1.72987
1.70231
1.67522
1.64861
1.6225
1.59692
1.57188
1.54744
1.52362
1.50047
1.47804
1.45638
1.43555
1.41559
1.39655
1.37847
2.45878
2.47414
2.48449
2.49028
2.49277
2.49184
2.4874
2.4795
2.46827
2.45387
2.43653
2.41649
2.39404
2.36946
2.34305
2.3151
2.28591
2.25572
2.22479
2.19333
2.16154
2.12957
2.09758
2.06567
2.03395
2.00249
1.97135
1.94057
1.9102
1.88025
1.85074
1.82169
1.79309
1.76497
1.73733
1.71017
1.6835
1.65734
1.63171
1.60662
1.5821
1.55818
1.53488
1.51226
1.49035
1.46919
1.44883
1.42929
1.41063
1.39287
2.45455
2.46948
2.47958
2.48531
2.48787
2.48716
2.48304
2.47556
2.46483
2.45099
2.43424
2.41481
2.39296
2.36896
2.34312
2.31571
2.28701
2.25728
2.22677
2.1957
2.16426
2.13263
2.10094
2.06932
2.03788
2.00669
1.97581
1.94531
1.91521
1.88555
1.85635
1.82761
1.79935
1.77159
1.74432
1.71756
1.69131
1.66559
1.64041
1.61579
1.59175
1.56832
1.54551
1.52338
1.50193
1.48122
1.46127
1.44211
1.42378
1.4063
2.45305
2.46774
2.47771
2.48341
2.486
2.48538
2.48143
2.47416
2.46369
2.45013
2.43369
2.41459
2.39306
2.3694
2.34388
2.31678
2.28838
2.25894
2.2287
2.19789
2.16671
2.13532
2.10388
2.0725
2.0413
2.01036
1.97974
1.94951
1.91969
1.89032
1.86141
1.833
1.80508
1.77768
1.75078
1.72441
1.69858
1.67328
1.64854
1.62437
1.60078
1.5778
1.55546
1.53376
1.51274
1.49243
1.47286
1.45403
1.43599
1.41875
2.45419
2.46886
2.47881
2.4845
2.48709
2.48647
2.48252
2.47527
2.46482
2.4513
2.43489
2.41583
2.39437
2.37077
2.34532
2.31831
2.29001
2.26068
2.23057
2.1999
2.16887
2.13764
2.10638
2.0752
2.0442
2.01349
1.98311
1.95313
1.92358
1.8945
1.86591
1.83782
1.81024
1.78319
1.75668
1.73069
1.70526
1.68038
1.65606
1.63231
1.60915
1.5866
1.56467
1.54338
1.52275
1.50281
1.48356
1.46504
1.44726
1.43022
2.45798
2.47283
2.48288
2.48859
2.49113
2.49042
2.48632
2.47888
2.46822
2.45447
2.43783
2.41854
2.39686
2.37307
2.34746
2.32031
2.29191
2.26252
2.23239
2.20172
2.17073
2.13959
2.10844
2.0774
2.04658
2.01605
1.9859
1.95616
1.92689
1.89809
1.86981
1.84204
1.81481
1.78811
1.76196
1.73637
1.71132
1.68684
1.66292
1.63958
1.61683
1.59467
1.57313
1.55222
1.53194
1.51233
1.49339
1.47513
1.45757
1.44072
2.46447
2.47972
2.48998
2.49572
2.49818
2.49726
2.49286
2.48503
2.47391
2.45966
2.44251
2.42271
2.40054
2.3763
2.35027
2.32277
2.29407
2.26445
2.23413
2.20336
2.17231
2.14116
2.11005
2.0791
2.04841
2.01806
1.98811
1.95861
1.92959
1.90108
1.87309
1.84565
1.81876
1.79242
1.76663
1.74141
1.71674
1.69264
1.66912
1.64616
1.62379
1.60201
1.58083
1.56025
1.54031
1.52099
1.50232
1.4843
1.46694
1.45026
2.47378
2.48964
2.50023
2.50604
2.50836
2.50711
2.50222
2.49377
2.48193
2.46691
2.44895
2.42835
2.4054
2.38043
2.35375
2.32567
2.29648
2.26644
2.23581
2.20479
2.17358
2.14234
2.11122
2.08031
2.04971
2.01951
1.98974
1.96046
1.93169
1.90345
1.87577
1.84865
1.82209
1.7961
1.77067
1.74581
1.72152
1.69779
1.67463
1.65204
1.63003
1.60859
1.58775
1.56749
1.54784
1.5288
1.51037
1.49256
1.47539
1.45884
2.48608
2.5028
2.51384
2.51972
2.52183
2.52012
2.51453
2.5052
2.49235
2.47624
2.45716
2.43544
2.41143
2.38546
2.35787
2.32899
2.2991
2.26849
2.23739
2.20601
2.17455
2.14315
2.11194
2.08103
2.0505
2.0204
1.9908
1.96173
1.9332
1.90524
1.87785
1.85104
1.82481
1.79916
1.77408
1.74958
1.72564
1.70227
1.67946
1.65722
1.63554
1.61443
1.59389
1.57393
1.55455
1.53575
1.51754
1.49993
1.48291
1.46649
2.50165
2.51949
2.53111
2.53706
2.53885
2.53649
2.52995
2.51945
2.50526
2.48771
2.46716
2.444
2.4186
2.39134
2.36259
2.33268
2.30191
2.27055
2.23885
2.20701
2.17521
2.14357
2.11223
2.08127
2.05077
2.02077
1.99132
1.96244
1.93414
1.90645
1.87935
1.85285
1.82694
1.80162
1.77688
1.75272
1.72912
1.70609
1.68362
1.6617
1.64034
1.61953
1.59928
1.57958
1.56045
1.54187
1.52386
1.50641
1.48953
1.47322
2.52082
2.54009
2.55241
2.5584
2.55975
2.5565
2.5487
2.53666
2.52075
2.50137
2.47897
2.454
2.42688
2.39804
2.36787
2.3367
2.30486
2.27261
2.24018
2.20777
2.17554
2.14361
2.11209
2.08105
2.05054
2.02062
1.99131
1.96261
1.93454
1.9071
1.88028
1.85408
1.82849
1.8035
1.77908
1.75525
1.73198
1.70927
1.68712
1.6655
1.64444
1.62391
1.60392
1.58446
1.56555
1.54717
1.52934
1.51204
1.49528
1.47906
2.54405
2.5651
2.57827
2.58424
2.58494
2.58049
2.57105
2.55704
2.53893
2.51727
2.49259
2.46541
2.43622
2.40549
2.37362
2.34098
2.30789
2.2746
2.24133
2.20826
2.17553
2.14326
2.11151
2.08036
2.04985
2.01998
1.99079
1.96227
1.93442
1.90723
1.88069
1.85478
1.82949
1.80481
1.78071
1.75719
1.73424
1.71183
1.68997
1.66864
1.64785
1.62758
1.60782
1.58859
1.56988
1.55168
1.534
1.51683
1.50018
1.48404
2.57196
2.59518
2.60934
2.61519
2.61496
2.6089
2.59732
2.58078
2.55994
2.53546
2.508
2.47817
2.44653
2.41359
2.37977
2.34544
2.31092
2.27646
2.24224
2.20844
2.17517
2.14251
2.11052
2.07924
2.04869
2.01888
1.9898
1.96145
1.93381
1.90687
1.88059
1.85497
1.82997
1.80559
1.7818
1.75857
1.73591
1.71379
1.69221
1.67115
1.6506
1.63056
1.61103
1.59199
1.57346
1.55542
1.53787
1.52082
1.50425
1.48818
2.60531
2.6312
2.64648
2.65201
2.65045
2.64223
2.62785
2.60811
2.58387
2.55595
2.52516
2.4922
2.45771
2.42222
2.38618
2.34997
2.31387
2.27811
2.24288
2.20828
2.17442
2.14134
2.10909
2.07767
2.04709
2.01732
1.98836
1.96018
1.93275
1.90604
1.88003
1.85468
1.82996
1.80587
1.78236
1.75942
1.73703
1.71518
1.69385
1.67303
1.65271
1.63289
1.61355
1.59469
1.57632
1.55841
1.54098
1.52403
1.50754
1.49151
2.64513
2.67428
2.69079
2.69569
2.69221
2.68108
2.66307
2.63927
2.61081
2.57873
2.54397
2.50735
2.46958
2.43121
2.39271
2.35441
2.3166
2.27947
2.24314
2.20772
2.17325
2.13975
2.10723
2.07567
2.04505
2.01534
1.9865
1.95848
1.93125
1.90478
1.87902
1.85393
1.82949
1.80567
1.78243
1.75976
1.73763
1.71602
1.69493
1.67433
1.65422
1.63458
1.61542
1.59672
1.57848
1.5607
1.54337
1.52649
1.51006
1.49408
2.69277
2.72592
2.74371
2.74748
2.74123
2.72615
2.70339
2.67446
2.64079
2.60369
2.56425
2.52342
2.48192
2.44035
2.39914
2.35861
2.31898
2.2804
2.24295
2.20668
2.1716
2.13769
2.10492
2.07323
2.04259
2.01294
1.98422
1.95637
1.92935
1.90311
1.87759
1.85277
1.82859
1.80502
1.78204
1.75962
1.73773
1.71635
1.69547
1.67507
1.65515
1.63568
1.61667
1.5981
1.57998
1.5623
1.54505
1.52824
1.51186
1.4959
2.75005
2.7881
2.80714
2.80894
2.79869
2.77822
2.74926
2.71382
2.67376
2.63064
2.58574
2.54008
2.49443
2.44935
2.40523
2.36233
2.32081
2.28076
2.24219
2.20509
2.16942
2.13512
2.10212
2.07034
2.0397
2.01012
1.98153
1.95387
1.92706
1.90105
1.87577
1.8512
1.82727
1.80395
1.78121
1.75902
1.73735
1.71618
1.6955
1.67528
1.65552
1.6362
1.61732
1.59888
1.58086
1.56326
1.54608
1.52931
1.51296
1.49703
2.81946
2.86354
2.88357
2.88206
2.86598
2.83812
2.80103
2.75738
2.70949
2.65923
2.60802
2.55692
2.50669
2.45782
2.41064
2.3653
2.32188
2.28036
2.24071
2.20283
2.16663
2.13199
2.09881
2.06696
2.03635
2.00688
1.97845
1.95098
1.92439
1.89861
1.87358
1.84924
1.82556
1.80247
1.77996
1.75799
1.73652
1.71554
1.69504
1.67498
1.65537
1.63618
1.61742
1.59907
1.58113
1.5636
1.54647
1.52974
1.51342
1.49749
2.90456
2.95605
2.97634
2.96935
2.94471
2.90671
2.85896
2.80496
2.74756
2.68889
2.63047
2.57334
2.51816
2.46531
2.41497
2.36719
2.3219
2.279
2.23835
2.19977
2.16312
2.12822
2.09491
2.06306
2.03253
2.0032
1.97495
1.94769
1.92133
1.8958
1.87101
1.84692
1.82347
1.80061
1.77831
1.75654
1.73527
1.71446
1.69411
1.6742
1.65472
1.63564
1.61698
1.59871
1.58084
1.56336
1.54627
1.52957
1.51325
1.49732
3.01055
3.07101
3.08996
3.07391
3.03666
2.98466
2.92296
2.856
2.78716
2.71873
2.65222
2.58853
2.52813
2.47121
2.41775
2.3676
2.32057
2.27642
2.23489
2.19575
2.15876
2.1237
2.09037
2.05859
2.0282
1.99905
1.97102
1.944
1.9179
1.89261
1.86807
1.84422
1.82101
1.79837
1.77628
1.7547
1.7336
1.71296
1.69275
1.67297
1.65359
1.63462
1.61603
1.59783
1.58001
1.56257
1.5455
1.52881
1.5125
1.49655
3.14541
3.21631
3.2305
3.1995
3.14359
3.07231
2.99243
2.90941
2.82698
2.74745
2.67207
2.60145
2.53574
2.4748
2.41836
2.36605
2.3175
2.27231
2.23012
2.19059
2.15342
2.11833
2.08508
2.05346
2.02329
1.99439
1.96663
1.93989
1.91405
1.88904
1.86476
1.84116
1.81818
1.79576
1.77387
1.75248
1.73154
1.71105
1.69097
1.6713
1.65202
1.63313
1.61461
1.59646
1.57868
1.56127
1.54421
1.52752
1.5112
1.49523
3.32207
3.40367
3.40609
3.35042
3.26689
3.16915
3.06584
2.96322
2.86504
2.77319
2.68842
2.61077
2.53988
2.4752
2.41612
2.36201
2.31227
2.26634
2.22376
2.18407
2.14692
2.11197
2.07895
2.0476
2.01774
1.98916
1.96173
1.93531
1.90978
1.88507
1.86107
1.83773
1.81499
1.79279
1.7711
1.74988
1.7291
1.70874
1.68879
1.66922
1.65003
1.63121
1.61274
1.59464
1.57688
1.55948
1.54243
1.52573
1.50938
1.49339
3.56279
3.65091
3.62725
3.53096
3.40676
3.27311
3.14015
3.01422
2.89836
2.79344
2.6992
2.61482
2.53926
2.47142
2.41027
2.35487
2.30441
2.25816
2.21553
2.17598
2.1391
2.10449
2.07186
2.04093
2.01147
1.98331
1.95627
1.93023
1.90506
1.88067
1.85698
1.83392
1.81143
1.78945
1.76796
1.74692
1.7263
1.70607
1.68623
1.66676
1.64764
1.62888
1.61046
1.59238
1.57464
1.55724
1.54018
1.52347
1.50709
1.49106
3.9081
3.98522
3.90644
3.74365
3.56036
3.37908
3.20981
3.05735
2.92269
2.80478
2.70176
2.6116
2.53236
2.4623
2.39993
2.34399
2.29343
2.24738
2.20513
2.16609
2.12976
2.09574
2.06369
2.03333
2.00443
1.97678
1.95022
1.92462
1.89986
1.87584
1.85248
1.82972
1.80749
1.78575
1.76447
1.7436
1.72313
1.70304
1.68331
1.66392
1.64487
1.62616
1.60777
1.58971
1.57198
1.55458
1.5375
1.52076
1.50435
1.48828
4.43188
4.4461
4.25577
3.98624
3.71934
3.47726
3.26586
3.08527
2.93238
2.803
2.69303
2.59889
2.51759
2.4467
2.38427
2.32873
2.27886
2.23365
2.19231
2.15418
2.11875
2.08559
2.05434
2.02473
1.99652
1.9695
1.94352
1.91844
1.89414
1.87054
1.84756
1.82512
1.80318
1.78169
1.76062
1.73994
1.71963
1.69967
1.68004
1.66073
1.64175
1.62308
1.60472
1.58667
1.56894
1.55152
1.53442
1.51765
1.50119
1.48507
5.26695
5.08486
4.68154
4.24896
3.86898
3.5533
3.29666
3.08939
2.92141
2.78402
2.6703
2.57492
2.4938
2.42388
2.36282
2.30883
2.26054
2.21687
2.17699
2.14023
2.10605
2.07403
2.04383
2.01515
1.98778
1.96152
1.9362
1.91172
1.88795
1.86482
1.84224
1.82016
1.79853
1.77731
1.75647
1.73598
1.71583
1.69599
1.67647
1.65724
1.63832
1.61968
1.60135
1.58331
1.56556
1.54812
1.53099
1.51417
1.49767
1.4815
6.70854
5.96744
5.1592
4.49502
3.97652
3.58181
3.28442
3.05805
2.88243
2.74334
2.63087
2.53808
2.46007
2.39332
2.33531
2.28414
2.23841
2.19704
2.15921
2.12427
2.09171
2.06113
2.03219
2.00464
1.97825
1.95286
1.92831
1.9045
1.88132
1.8587
1.83657
1.81488
1.79358
1.77265
1.75205
1.73176
1.71177
1.69207
1.67265
1.6535
1.63463
1.61603
1.5977
1.57966
1.5619
1.54444
1.52727
1.5104
1.49384
1.4776
9.52732
7.15181
5.52342
4.5663
3.92849
3.48771
3.18084
2.96015
2.79498
2.66699
2.56479
2.48099
2.41067
2.35047
2.29799
2.25153
2.20981
2.17187
2.13699
2.10459
2.07423
2.04555
2.01826
1.99214
1.96701
1.9427
1.9191
1.89611
1.87365
1.85165
1.83005
1.80881
1.7879
1.76729
1.74697
1.7269
1.7071
1.68754
1.66823
1.64916
1.63035
1.61178
1.59346
1.57541
1.55762
1.54012
1.52289
1.50596
1.48934
1.47302
14.2955
8.34788
5.42966
4.22611
3.58773
3.19837
2.94799
2.77507
2.64705
2.54731
2.46667
2.39953
2.3423
2.29252
2.24849
2.20893
2.17293
2.13978
2.10892
2.07993
2.05248
2.02629
2.00114
1.97687
1.95333
1.9304
1.90799
1.88602
1.86444
1.84319
1.82225
1.80156
1.78112
1.76091
1.7409
1.72111
1.70152
1.68213
1.66294
1.64396
1.6252
1.60665
1.58834
1.57027
1.55244
1.53488
1.51758
1.50057
1.48386
1.46744
1.01274
1.01228
1.01141
1.01035
1.00929
1.00839
1.00774
1.0074
1.00743
1.00783
1.00863
1.00983
1.01142
1.01339
1.01573
1.01842
1.02145
1.02478
1.0284
1.03228
1.03641
1.04075
1.04528
1.04998
1.05482
1.05978
1.06485
1.06998
1.07518
1.0804
1.08564
1.09088
1.09609
1.10127
1.10639
1.11144
1.1164
1.12127
1.12603
1.13066
1.13517
1.13953
1.14374
1.14779
1.15167
1.15538
1.15891
1.16226
1.16542
1.16839
1.17117
1.17374
1.17612
1.1783
1.18028
1.18206
1.18364
1.18502
1.1862
1.18719
1.18798
1.18858
1.18899
1.18921
1.18925
1.18911
1.18879
1.1883
1.18764
1.18682
1.18584
1.1847
1.18341
1.18197
1.18039
1.17867
1.17682
1.17484
1.17273
1.17051
1.16818
1.16573
1.16318
1.16053
1.15778
1.15494
1.15202
1.14901
1.14592
1.14276
1.13953
1.13623
1.13287
1.12945
1.12598
1.12245
1.11888
1.11526
1.11159
1.10789
1.10416
1.10039
1.09659
1.09277
1.08892
1.08504
1.08115
1.07724
1.07332
1.06938
1.06543
1.06147
1.05751
1.05353
1.04956
1.04558
1.0416
1.03762
1.03364
1.02966
1.02569
1.02172
1.01776
1.0138
1.00986
1.00592
1.00199
0.998066
0.994157
0.990259
0.986372
0.982497
0.978636
0.974787
0.970952
0.96713
0.963322
0.959529
0.955751
0.951987
0.948238
0.944503
0.940784
0.937081
0.933392
0.929719
0.92606
0.922418
0.91879
0.915177
0.91158
0.907998
0.90443
0.900878
0.89734
0.893816
0.890307
0.886812
0.883331
0.879864
0.876411
0.872971
0.869545
0.866132
0.862731
0.859344
0.855969
0.852606
0.849255
0.845916
0.842588
0.839272
0.835967
0.832673
0.82939
0.826117
0.822854
0.819602
0.816359
0.813125
0.809901
0.806686
0.80348
0.800283
0.797093
0.793913
0.79074
0.787575
0.784417
0.781267
0.778124
0.774988
0.771858
0.768735
0.765619
0.762509
0.759404
0.756306
0.753213
0.750125
0.747043
0.743966
0.740894
0.737826
0.734764
0.731705
0.728651
0.725601
0.722555
0.719513
0.716474
0.713439
0.710408
0.70738
0.704355
0.701333
0.698314
0.695298
0.692285
0.689274
0.686265
0.683259
0.680256
0.677254
0.674255
0.671257
0.668261
0.665267
0.662275
0.659285
0.656296
0.653308
0.650322
0.647337
0.644354
0.641371
0.63839
0.63541
0.632431
0.629452
0.626475
0.623498
0.620522
0.617547
0.614572
0.611598
0.608625
0.605652
0.602679
0.599707
0.596735
0.593764
0.590793
0.587822
0.584851
0.58188
0.57891
0.57594
0.57297
0.57
0.56703
0.56406
0.561089
0.558119
0.555149
0.552179
0.549209
0.546238
0.543268
0.540297
0.537326
0.534355
0.531383
0.528412
0.52544
0.522468
0.519495
0.516523
0.51355
0.510577
0.507603
0.504629
0.501655
0.49868
0.495706
0.49273
0.489755
0.486779
0.483802
0.480826
0.477849
0.474871
0.471893
0.468915
0.465936
0.462957
0.459978
0.456998
0.454018
0.451037
0.448056
0.445075
0.442093
0.43911
0.436128
0.433145
0.430161
0.427177
0.424193
0.421208
0.418223
0.415238
0.412252
0.409266
0.406279
0.403292
0.400305
0.397317
0.394329
0.39134
0.388352
0.385362
0.382373
0.379383
0.376393
0.373402
0.370411
0.36742
0.364428
0.361436
0.358444
0.355451
0.352459
0.349465
0.346472
0.343478
0.340484
0.33749
0.334495
0.3315
0.328505
0.32551
0.322514
0.319518
0.316522
0.313526
0.310529
0.307532
0.304535
0.301538
0.298541
0.295543
0.292545
0.289547
0.286549
0.283551
0.280552
0.277554
0.274555
0.271556
0.268557
0.265557
0.262558
0.259558
0.256559
0.253559
0.250559
0.247559
0.244559
0.241558
0.238558
0.235558
0.232557
0.229557
0.226556
0.223555
0.220554
0.217554
0.214553
0.211552
0.208551
0.20555
0.202549
0.199547
0.196546
0.193545
0.190544
0.187543
0.184541
0.18154
0.178539
0.175537
0.172536
0.169535
0.166533
0.163532
0.160531
0.157529
0.154528
0.151527
0.148525
0.145524
0.142523
0.139521
0.13652
0.133519
0.130518
0.127517
0.124515
0.121514
0.118513
0.115512
0.112511
0.10951
0.106509
0.103508
0.100507
0.0975061
0.0945052
0.0915043
0.0885035
0.0855027
0.0825019
0.0795012
0.0765005
0.0734998
0.0704991
0.0674985
0.0644979
0.0614973
0.0584968
0.0554963
0.0524958
0.0494953
0.0464949
0.0434945
0.0404941
0.0374938
0.0344934
0.0314932
0.0284929
0.0254927
0.0224926
0.0194925
0.0164925
0.0134925
0.0104928
0.00749323
0.00449397
0.00149656
1.0132
1.01274
1.01205
1.01126
1.01049
1.00985
1.00942
1.00926
1.00942
1.00991
1.01075
1.01194
1.0135
1.0154
1.01764
1.02021
1.02309
1.02626
1.0297
1.0334
1.03732
1.04145
1.04577
1.05025
1.05487
1.05962
1.06446
1.06938
1.07436
1.07937
1.08441
1.08945
1.09447
1.09946
1.10441
1.10929
1.11409
1.11881
1.12342
1.12792
1.1323
1.13654
1.14065
1.1446
1.14839
1.15202
1.15548
1.15877
1.16187
1.16479
1.16753
1.17007
1.17243
1.17459
1.17655
1.17833
1.17991
1.18129
1.18248
1.18349
1.1843
1.18492
1.18536
1.18562
1.1857
1.1856
1.18532
1.18488
1.18427
1.1835
1.18257
1.18149
1.18026
1.17888
1.17737
1.17571
1.17393
1.17201
1.16998
1.16782
1.16556
1.16318
1.1607
1.15811
1.15544
1.15267
1.14981
1.14687
1.14385
1.14075
1.13759
1.13436
1.13106
1.12771
1.12429
1.12083
1.11732
1.11376
1.11015
1.10651
1.10283
1.09912
1.09538
1.0916
1.08781
1.08398
1.08014
1.07628
1.0724
1.06851
1.06461
1.06069
1.05677
1.05283
1.0489
1.04496
1.04101
1.03707
1.03312
1.02918
1.02524
1.0213
1.01737
1.01345
1.00953
1.00561
1.00171
0.997814
0.993929
0.990053
0.986188
0.982335
0.978493
0.974664
0.970847
0.967043
0.963252
0.959475
0.955711
0.951961
0.948226
0.944505
0.940798
0.937106
0.933428
0.929766
0.926117
0.922484
0.918865
0.91526
0.911671
0.908095
0.904535
0.900988
0.897456
0.893938
0.890434
0.886943
0.883467
0.880004
0.876554
0.873117
0.869694
0.866283
0.862885
0.859499
0.856126
0.852764
0.849415
0.846077
0.84275
0.839434
0.83613
0.832836
0.829552
0.826279
0.823016
0.819763
0.81652
0.813285
0.81006
0.806844
0.803637
0.800438
0.797248
0.794066
0.790891
0.787724
0.784565
0.781413
0.778268
0.775131
0.771999
0.768874
0.765756
0.762644
0.759537
0.756437
0.753342
0.750252
0.747168
0.744088
0.741014
0.737944
0.734879
0.731819
0.728762
0.72571
0.722662
0.719617
0.716577
0.71354
0.710506
0.707476
0.704449
0.701425
0.698404
0.695385
0.69237
0.689357
0.686346
0.683338
0.680333
0.677329
0.674328
0.671328
0.668331
0.665335
0.662341
0.659348
0.656358
0.653368
0.65038
0.647394
0.644409
0.641425
0.638442
0.63546
0.632479
0.629499
0.62652
0.623542
0.620564
0.617587
0.614611
0.611636
0.608661
0.605687
0.602713
0.599739
0.596766
0.593794
0.590821
0.587849
0.584877
0.581906
0.578934
0.575963
0.572992
0.57002
0.567049
0.564078
0.561107
0.558136
0.555165
0.552194
0.549223
0.546252
0.54328
0.540309
0.537337
0.534365
0.531393
0.52842
0.525448
0.522475
0.519502
0.516529
0.513555
0.510581
0.507607
0.504633
0.501658
0.498683
0.495708
0.492732
0.489756
0.486779
0.483803
0.480826
0.477848
0.47487
0.471892
0.468913
0.465934
0.462955
0.459975
0.456995
0.454014
0.451033
0.448052
0.44507
0.442088
0.439106
0.436123
0.43314
0.430156
0.427172
0.424188
0.421203
0.418218
0.415232
0.412246
0.40926
0.406273
0.403286
0.400298
0.397311
0.394322
0.391334
0.388345
0.385356
0.382366
0.379376
0.376386
0.373395
0.370404
0.367413
0.364421
0.36143
0.358437
0.355445
0.352452
0.349459
0.346465
0.343472
0.340478
0.337483
0.334489
0.331494
0.328499
0.325504
0.322508
0.319512
0.316516
0.31352
0.310524
0.307527
0.30453
0.301533
0.298536
0.295538
0.29254
0.289543
0.286544
0.283546
0.280548
0.277549
0.27455
0.271552
0.268552
0.265553
0.262554
0.259555
0.256555
0.253555
0.250555
0.247556
0.244555
0.241555
0.238555
0.235555
0.232554
0.229554
0.226553
0.223553
0.220552
0.217551
0.214551
0.21155
0.208549
0.205548
0.202547
0.199546
0.196545
0.193544
0.190543
0.187541
0.18454
0.181539
0.178538
0.175536
0.172535
0.169534
0.166533
0.163531
0.16053
0.157529
0.154528
0.151526
0.148525
0.145524
0.142523
0.139521
0.13652
0.133519
0.130518
0.127517
0.124515
0.121514
0.118513
0.115512
0.112511
0.10951
0.106509
0.103508
0.100507
0.0975064
0.0945056
0.0915047
0.0885039
0.0855031
0.0825024
0.0795017
0.076501
0.0735003
0.0704996
0.067499
0.0644984
0.0614979
0.0584973
0.0554968
0.0524964
0.0494959
0.0464955
0.0434951
0.0404948
0.0374944
0.0344941
0.0314939
0.0284937
0.0254935
0.0224934
0.0194934
0.0164934
0.0134936
0.010494
0.00749452
0.0044951
0.00149701
1.01407
1.01343
1.01274
1.01205
1.01141
1.01092
1.01062
1.01058
1.01082
1.01136
1.01223
1.01343
1.01495
1.01681
1.01898
1.02146
1.02423
1.02728
1.03058
1.03413
1.0379
1.04187
1.04602
1.05034
1.05479
1.05936
1.06403
1.06878
1.07359
1.07844
1.08332
1.0882
1.09307
1.09791
1.10272
1.10746
1.11214
1.11674
1.12124
1.12563
1.12991
1.13406
1.13807
1.14195
1.14567
1.14923
1.15264
1.15587
1.15893
1.16181
1.16451
1.16703
1.16936
1.17151
1.17346
1.17523
1.17681
1.1782
1.1794
1.18041
1.18124
1.18189
1.18235
1.18263
1.18274
1.18267
1.18244
1.18203
1.18147
1.18074
1.17985
1.17882
1.17764
1.17631
1.17484
1.17324
1.17151
1.16965
1.16767
1.16557
1.16335
1.16103
1.15861
1.15608
1.15346
1.15074
1.14794
1.14506
1.1421
1.13906
1.13595
1.13277
1.12952
1.12622
1.12286
1.11945
1.11599
1.11248
1.10892
1.10533
1.1017
1.09803
1.09433
1.0906
1.08685
1.08307
1.07927
1.07545
1.07161
1.06775
1.06389
1.06001
1.05612
1.05222
1.04832
1.04441
1.0405
1.03658
1.03267
1.02875
1.02484
1.02093
1.01702
1.01312
1.00923
1.00534
1.00145
0.997581
0.993715
0.98986
0.986014
0.982178
0.978354
0.974541
0.97074
0.966951
0.963175
0.959411
0.955661
0.951924
0.9482
0.944491
0.940795
0.937113
0.933445
0.929791
0.926152
0.922526
0.918915
0.915318
0.911735
0.908166
0.904612
0.901071
0.897544
0.894031
0.890531
0.887045
0.883572
0.880113
0.876666
0.873232
0.869812
0.866403
0.863007
0.859624
0.856252
0.852892
0.849543
0.846206
0.842881
0.839566
0.836262
0.832968
0.829685
0.826412
0.823149
0.819895
0.816652
0.813417
0.810191
0.806975
0.803767
0.800567