/*--------------------------------*- C++ -*----------------------------------*\
| =========                 |                                                 |
| \\      /  F ield         | OpenFOAM: The Open Source CFD Toolbox           |
|  \\    /   O peration     | Version:  2306                                  |
|   \\  /    A nd           | Website:  www.openfoam.com                      |
|    \\/     M anipulation  |                                                 |
\*---------------------------------------------------------------------------*/
FoamFile
{
    version     2.0;
    format      ascii;
    arch        "LSB;label=32;scalar=64";
    class       volScalarField;
    location    "1.05";
    object      p;
}
// * * * * * * * * * * * * * * * * * * * * * * * * * * * * * * * * * * * * * //

dimensions      [0 2 -2 0 0 0 0];

internalField   nonuniform List<scalar> 
47500
(
14.2636
8.31618
5.39829
4.19504
3.5569
3.16768
2.91733
2.74432
2.61608
2.51599
2.43487
2.36711
2.30912
2.25844
2.21335
2.17259
2.13522
2.10054
2.06797
2.03709
2.00755
1.97907
1.95141
1.9244
1.89788
1.87171
1.84579
1.82004
1.79436
1.7687
1.74299
1.71721
1.69131
1.66525
1.63903
1.61264
1.58608
1.55938
1.5326
1.50582
1.47921
1.45302
1.42763
1.40366
1.38189
1.36302
1.34747
1.33361
1.28843
1.0433
9.49513
7.11985
5.49167
4.53469
3.89694
3.45615
3.14917
2.92824
2.76272
2.63426
2.53145
2.44691
2.37571
2.31447
2.26081
2.213
2.16976
2.13014
2.09338
2.05891
2.02627
1.99509
1.96508
1.93599
1.90762
1.8798
1.8524
1.82529
1.79838
1.77157
1.7448
1.71799
1.6911
1.66406
1.63685
1.60943
1.58176
1.55382
1.52561
1.4971
1.46829
1.43915
1.4096
1.37944
1.34805
1.31387
1.27374
1.22202
1.13979
0.970485
6.67608
5.93529
5.12723
4.46309
3.94454
3.54969
3.25206
3.02534
2.84925
2.70957
2.59638
2.50274
2.42373
2.35584
2.29653
2.24389
2.19652
2.15333
2.11349
2.07633
2.04134
2.00809
1.97625
1.94553
1.9157
1.88658
1.85798
1.82979
1.80187
1.77413
1.74647
1.71882
1.6911
1.66325
1.63519
1.60689
1.57826
1.54925
1.51979
1.48978
1.45908
1.42749
1.39467
1.36004
1.32253
1.28021
1.22991
1.16698
1.08272
0.962375
5.23433
5.05266
4.64954
4.21696
3.83685
3.52093
3.26394
3.05621
2.88766
2.74957
2.63503
2.53868
2.45647
2.3853
2.32283
2.26727
2.21723
2.17163
2.12962
2.09051
2.05377
2.01894
1.98568
1.95368
1.92269
1.8925
1.86294
1.83385
1.8051
1.77658
1.74818
1.71981
1.69138
1.66283
1.63405
1.60499
1.57555
1.54563
1.51512
1.48388
1.45171
1.41831
1.38328
1.34599
1.30547
1.26025
1.20832
1.14715
1.0733
0.983921
4.39928
4.414
4.22391
3.95439
3.68733
3.44493
3.23309
3.05194
2.89837
2.76818
2.65729
2.56208
2.47958
2.40733
2.34339
2.28618
2.23445
2.1872
2.1436
2.10302
2.0649
2.0288
1.99436
1.96128
1.92929
1.89818
1.86776
1.83788
1.80839
1.77916
1.75009
1.72107
1.69202
1.66283
1.63341
1.60368
1.57353
1.54284
1.51148
1.47927
1.446
1.41137
1.37498
1.3363
1.2946
1.24896
1.19832
1.14174
1.07854
1.00978
3.87571
3.95341
3.87491
3.71215
3.52868
3.34705
3.17728
3.02418
2.88875
2.76994
2.66589
2.57457
2.49403
2.42252
2.35854
2.30081
2.2483
2.2001
2.1555
2.11389
2.07476
2.03769
2.00233
1.96836
1.93555
1.90366
1.87251
1.84194
1.8118
1.78196
1.7523
1.72272
1.69312
1.66338
1.63342
1.60314
1.57241
1.54113
1.50914
1.47627
1.44231
1.40701
1.37003
1.33099
1.28942
1.24484
1.19685
1.14541
1.09109
1.0359
3.53081
3.61955
3.59622
3.49998
3.37562
3.24162
3.10814
2.98152
2.86483
2.75893
2.66358
2.57796
2.501
2.43162
2.36877
2.31151
2.259
2.21051
2.16543
2.12323
2.08345
2.04569
2.00964
1.975
1.94152
1.909
1.87725
1.84611
1.81542
1.78506
1.7549
1.72485
1.69478
1.66461
1.63422
1.60351
1.57237
1.54068
1.5083
1.47508
1.44084
1.40537
1.36844
1.3298
1.28923
1.24655
1.20179
1.15532
1.10811
1.06207
3.2907
3.37295
3.37573
3.32014
3.23649
3.13842
3.03458
2.93126
2.83221
2.73935
2.65341
2.57445
2.5021
2.43581
2.37496
2.3189
2.26703
2.2188
2.17369
2.13127
2.09114
2.05297
2.01644
1.98131
1.94734
1.91432
1.88208
1.85047
1.81933
1.78854
1.75798
1.72754
1.69711
1.66659
1.63588
1.60489
1.57349
1.54159
1.50905
1.47576
1.44157
1.40633
1.36991
1.33219
1.2931
1.25268
1.21118
1.16914
1.12754
1.08792
3.11485
3.18641
3.20098
3.17009
3.11409
3.04251
2.96213
2.87841
2.79512
2.71455
2.63798
2.56601
2.4988
2.4362
2.37793
2.32363
2.2729
2.22535
2.18058
2.13826
2.09806
2.05969
2.02289
1.98743
1.95309
1.91971
1.88709
1.85511
1.82361
1.79248
1.76159
1.73085
1.70015
1.6694
1.63849
1.60733
1.57582
1.54387
1.51138
1.47825
1.44437
1.40967
1.37407
1.33756
1.30018
1.26209
1.22364
1.18538
1.1482
1.11326
2.98098
3.0421
3.06144
3.04553
3.00821
2.95596
2.89378
2.82617
2.75647
2.68702
2.61932
2.55428
2.49237
2.43376
2.37845
2.32628
2.27705
2.2305
2.18637
2.14441
2.10437
2.066
2.02909
1.99345
1.95889
1.92524
1.89235
1.86008
1.82831
1.79692
1.76579
1.73484
1.70396
1.67305
1.64204
1.61084
1.57935
1.5475
1.51522
1.48243
1.44907
1.41511
1.38053
1.34537
1.30976
1.27391
1.23819
1.20313
1.16944
1.13801
2.87616
2.92829
2.94897
2.94213
2.91746
2.87924
2.83106
2.77645
2.71824
2.65858
2.599
2.54053
2.48385
2.42934
2.37716
2.32735
2.27986
2.23457
2.19131
2.14991
2.11021
2.07201
2.03514
1.99945
1.96477
1.93096
1.89788
1.86542
1.83346
1.80188
1.7706
1.73951
1.70852
1.67756
1.64654
1.61538
1.58403
1.55241
1.52047
1.48816
1.45545
1.42235
1.38887
1.35512
1.32124
1.28747
1.25415
1.22176
1.19087
1.16215
2.79239
2.83708
2.85749
2.85614
2.84006
2.81202
2.77455
2.73034
2.6817
2.6305
2.57817
2.52579
2.47409
2.42359
2.3746
2.32727
2.28168
2.2378
2.19558
2.15491
2.1157
2.0778
2.0411
2.00547
1.97077
1.93689
1.90372
1.87114
1.83906
1.80737
1.77599
1.74483
1.71381
1.68287
1.65192
1.62091
1.58977
1.55847
1.52697
1.49523
1.46326
1.43108
1.39875
1.36638
1.33413
1.30224
1.27102
1.24087
1.21224
1.18565
2.72444
2.76307
2.78248
2.78445
2.77422
2.7536
2.72431
2.68836
2.64761
2.60362
2.55768
2.5108
2.46375
2.41709
2.37122
2.3264
2.28277
2.24041
2.19934
2.15952
2.12091
2.08344
2.047
2.01152
1.9769
1.94303
1.90983
1.87721
1.84507
1.81333
1.78192
1.75076
1.71978
1.68891
1.65811
1.62731
1.59647
1.56555
1.53455
1.50344
1.47225
1.44102
1.40982
1.37876
1.34802
1.31781
1.2884
1.26013
1.23337
1.20848
2.66876
2.70245
2.7206
2.72453
2.71832
2.70312
2.68008
2.65069
2.6164
2.5785
2.5381
2.49612
2.45331
2.41025
2.36738
2.32501
2.28335
2.24256
2.20271
2.16382
2.12591
2.08893
2.05285
2.0176
1.98312
1.94934
1.91618
1.88357
1.85144
1.81972
1.78833
1.75723
1.72634
1.69561
1.665
1.63446
1.60397
1.5735
1.54303
1.51259
1.48219
1.4519
1.42178
1.39195
1.36258
1.33386
1.30602
1.27934
1.25411
1.23062
2.62284
2.65249
2.66933
2.6744
2.67096
2.65974
2.64148
2.61729
2.58827
2.55547
2.51983
2.48216
2.44317
2.40342
2.36336
2.32334
2.28362
2.24439
2.20578
2.16787
2.1307
2.09429
2.05863
2.02368
1.98941
1.95577
1.92271
1.89017
1.8581
1.82644
1.79513
1.76413
1.73338
1.70284
1.67247
1.64224
1.61214
1.58213
1.55224
1.52247
1.49285
1.46346
1.43436
1.40567
1.37754
1.35013
1.32365
1.29832
1.27437
1.25202
2.58484
2.61119
2.62677
2.63246
2.63095
2.62266
2.60808
2.58799
2.56326
2.5347
2.50312
2.46921
2.43361
2.39685
2.35938
2.32156
2.28369
2.24599
2.20861
2.1717
2.13531
2.09951
2.0643
2.0297
1.99569
1.96225
1.92934
1.89692
1.86496
1.83341
1.80222
1.77137
1.7408
1.71048
1.68039
1.65051
1.62081
1.59129
1.56197
1.53287
1.50402
1.47548
1.44734
1.41969
1.39267
1.36642
1.34111
1.31692
1.29405
1.27265
2.55341
2.57704
2.59147
2.59747
2.59729
2.59118
2.57943
2.56259
2.54133
2.51629
2.48813
2.45745
2.42482
2.39073
2.35561
2.31983
2.28369
2.24744
2.21127
2.17533
2.13973
2.10455
2.06983
2.03562
2.00191
1.9687
1.93598
1.90373
1.87192
1.84051
1.80949
1.77882
1.74847
1.71841
1.68863
1.6591
1.62983
1.60081
1.57206
1.54361
1.51549
1.48776
1.4605
1.4338
1.40777
1.38254
1.35824
1.33504
1.31307
1.29248
2.5275
2.5489
2.56232
2.56843
2.56918
2.5647
2.55512
2.54085
2.52238
2.50024
2.47494
2.44701
2.41695
2.3852
2.35218
2.31824
2.2837
2.2488
2.21377
2.17877
2.14394
2.10939
2.07518
2.04137
2.00798
1.97504
1.94255
1.91049
1.87887
1.84765
1.81683
1.78637
1.75626
1.72649
1.69703
1.66789
1.63905
1.61053
1.58234
1.55451
1.52709
1.50011
1.47366
1.44782
1.42268
1.39834
1.37494
1.35258
1.33138
1.31146
2.50633
2.52591
2.53845
2.54456
2.54596
2.54268
2.53477
2.52252
2.5063
2.48651
2.46359
2.43798
2.41011
2.38039
2.3492
2.3169
2.28379
2.25013
2.21615
2.18203
2.14794
2.114
2.08029
2.04689
2.01384
1.98119
1.94895
1.91712
1.88571
1.85471
1.82411
1.7939
1.76406
1.73459
1.70548
1.67672
1.64833
1.6203
1.59265
1.56543
1.53866
1.51239
1.48668
1.46161
1.43726
1.41372
1.39109
1.36946
1.34893
1.32958
2.48929
2.50739
2.5192
2.52525
2.52709
2.5247
2.51808
2.5074
2.49296
2.47507
2.45409
2.43039
2.40435
2.37635
2.34675
2.31587
2.28401
2.25145
2.21842
2.18512
2.15171
2.11834
2.08512
2.05212
2.01943
1.98708
1.9551
1.92352
1.89235
1.86159
1.83123
1.80129
1.77174
1.74259
1.71384
1.68548
1.65752
1.62997
1.60286
1.57621
1.55005
1.52444
1.49941
1.47505
1.45141
1.42857
1.40662
1.38562
1.36566
1.3468
2.4759
2.49284
2.50403
2.50999
2.51214
2.51041
2.50475
2.49529
2.48224
2.46585
2.44642
2.42427
2.39974
2.37316
2.34487
2.3152
2.28442
2.25281
2.22061
2.18803
2.15524
2.1224
2.08963
2.05703
2.02467
1.99262
1.96092
1.92961
1.89869
1.86818
1.8381
1.80844
1.7792
1.75038
1.72199
1.69403
1.66651
1.63944
1.61284
1.58673
1.56116
1.53615
1.51175
1.48802
1.46502
1.44281
1.42145
1.401
1.38153
1.36309
2.46581
2.48184
2.49255
2.49842
2.50078
2.49952
2.49458
2.48603
2.47403
2.4588
2.44057
2.41963
2.39629
2.37084
2.34362
2.31492
2.28503
2.25422
2.22272
2.19075
2.15851
2.12614
2.09378
2.06154
2.02952
1.99777
1.96635
1.9353
1.90465
1.87442
1.84462
1.81526
1.78634
1.75786
1.72985
1.70229
1.6752
1.64859
1.62248
1.59689
1.57186
1.54741
1.52359
1.50044
1.47801
1.45636
1.43552
1.41556
1.39652
1.37845
2.45875
2.47412
2.48446
2.49026
2.49274
2.49182
2.48737
2.47947
2.46824
2.45385
2.43651
2.41647
2.39401
2.36943
2.34302
2.31508
2.28588
2.2557
2.22476
2.19331
2.16151
2.12954
2.09755
2.06564
2.03392
2.00246
1.97132
1.94055
1.91017
1.88022
1.85071
1.82166
1.79307
1.76495
1.7373
1.71014
1.68348
1.65732
1.63169
1.60659
1.58207
1.55815
1.53486
1.51224
1.49033
1.46917
1.4488
1.42927
1.4106
1.39284
2.45453
2.46945
2.47955
2.48529
2.48785
2.48713
2.48301
2.47553
2.4648
2.45096
2.43421
2.41478
2.39293
2.36894
2.34309
2.31568
2.28698
2.25726
2.22675
2.19568
2.16424
2.1326
2.10091
2.0693
2.03785
2.00666
1.97579
1.94529
1.91519
1.88553
1.85632
1.82758
1.79933
1.77156
1.74429
1.71753
1.69128
1.66556
1.64038
1.61576
1.59173
1.56829
1.54549
1.52335
1.50191
1.4812
1.46124
1.44209
1.42376
1.40627
2.45302
2.46771
2.47768
2.48338
2.48598
2.48536
2.4814
2.47414
2.46366
2.45011
2.43367
2.41456
2.39304
2.36937
2.34385
2.31675
2.28835
2.25891
2.22868
2.19787
2.16668
2.13529
2.10385
2.07248
2.04128
2.01033
1.97972
1.94948
1.91966
1.89029
1.86139
1.83297
1.80506
1.77765
1.75076
1.72439
1.69855
1.67326
1.64851
1.62434
1.60076
1.57778
1.55543
1.53373
1.51272
1.49241
1.47283
1.45401
1.43596
1.41872
2.45416
2.46883
2.47879
2.48448
2.48706
2.48645
2.4825
2.47524
2.46479
2.45127
2.43487
2.41581
2.39434
2.37074
2.3453
2.31829
2.28998
2.26066
2.23055
2.19988
2.16884
2.13762
2.10635
2.07517
2.04418
2.01346
1.98309
1.9531
1.92356
1.89448
1.86588
1.83779
1.81022
1.78317
1.75665
1.73067
1.70523
1.68035
1.65603
1.63228
1.60913
1.58657
1.56464
1.54335
1.52273
1.50278
1.48354
1.46501
1.44723
1.43019
2.45795
2.4728
2.48285
2.48856
2.49111
2.49039
2.48629
2.47886
2.46819
2.45444
2.4378
2.41851
2.39683
2.37304
2.34743
2.32029
2.29189
2.2625
2.23236
2.2017
2.17071
2.13956
2.10841
2.07737
2.04655
2.01603
1.98587
1.95614
1.92686
1.89807
1.86978
1.84201
1.81478
1.78809
1.76194
1.73634
1.71129
1.68681
1.66289
1.63955
1.6168
1.59465
1.5731
1.55219
1.53192
1.5123
1.49336
1.4751
1.45754
1.44069
2.46444
2.47969
2.48995
2.4957
2.49816
2.49724
2.49283
2.485
2.47388
2.45963
2.44248
2.42268
2.40051
2.37627
2.35025
2.32274
2.29405
2.26442
2.23411
2.20333
2.17228
2.14113
2.11002
2.07907
2.04838
2.01803
1.98808
1.95858
1.92956
1.90105
1.87307
1.84562
1.81873
1.79239
1.7666
1.74138
1.71672
1.69262
1.66909
1.64613
1.62376
1.60198
1.5808
1.56023
1.54028
1.52096
1.50229
1.48427
1.46691
1.45023
2.47375
2.48961
2.5002
2.50601
2.50833
2.50709
2.50219
2.49374
2.4819
2.46688
2.44892
2.42832
2.40537
2.38041
2.35373
2.32564
2.29645
2.26641
2.23578
2.20476
2.17355
2.14232
2.11119
2.08028
2.04969
2.01948
1.98971
1.96043
1.93166
1.90343
1.87575
1.84862
1.82206
1.79607
1.77064
1.74578
1.72149
1.69776
1.6746
1.65201
1.63
1.60856
1.58772
1.56746
1.54781
1.52877
1.51034
1.49253
1.47535
1.45881
2.48606
2.50278
2.51382
2.5197
2.5218
2.52009
2.5145
2.50517
2.49233
2.47621
2.45713
2.43542
2.4114
2.38543
2.35784
2.32896
2.29907
2.26846
2.23736
2.20599
2.17452
2.14312
2.11192
2.081
2.05047
2.02038
1.99078
1.9617
1.93317
1.90521
1.87782
1.85102
1.82479
1.79913
1.77406
1.74955
1.72561
1.70224
1.67943
1.65719
1.63551
1.6144
1.59386
1.5739
1.55452
1.53572
1.51751
1.4999
1.48288
1.46646
2.50162
2.51946
2.53108
2.53703
2.53883
2.53646
2.52992
2.51942
2.50523
2.48768
2.46714
2.44397
2.41857
2.39132
2.36257
2.33265
2.30188
2.27053
2.23883
2.20699
2.17518
2.14355
2.1122
2.08124
2.05074
2.02074
1.99129
1.96241
1.93412
1.90642
1.87932
1.85282
1.82691
1.80159
1.77685
1.75269
1.72909
1.70606
1.68359
1.66167
1.64031
1.6195
1.59925
1.57955
1.56042
1.54184
1.52383
1.50638
1.4895
1.47319
2.52079
2.54006
2.55239
2.55838
2.55972
2.55647
2.54868
2.53663
2.52072
2.50134
2.47894
2.45397
2.42685
2.39802
2.36784
2.33667
2.30483
2.27258
2.24015
2.20774
2.17551
2.14358
2.11206
2.08102
2.05052
2.02059
1.99128
1.96258
1.93451
1.90707
1.88026
1.85406
1.82846
1.80347
1.77906
1.75522
1.73195
1.70924
1.68709
1.66547
1.64441
1.62388
1.60389
1.58443
1.56552
1.54714
1.5293
1.51201
1.49525
1.47903
2.54403
2.56507
2.57824
2.58422
2.58491
2.58047
2.57103
2.55701
2.53891
2.51725
2.49256
2.46538
2.43619
2.40546
2.37359
2.34096
2.30786
2.27457
2.2413
2.20823
2.1755
2.14323
2.11149
2.08034
2.04982
2.01996
1.99076
1.96224
1.93439
1.9072
1.88066
1.85475
1.82946
1.80478
1.78068
1.75716
1.73421
1.7118
1.68994
1.66861
1.64782
1.62754
1.60779
1.58856
1.56985
1.55165
1.53397
1.5168
1.50015
1.484
2.57193
2.59515
2.60931
2.61516
2.61493
2.60888
2.59729
2.58075
2.55991
2.53543
2.50797
2.47814
2.4465
2.41356
2.37974
2.34542
2.3109
2.27643
2.24222
2.20842
2.17514
2.14248
2.11049
2.07921
2.04866
2.01885
1.98977
1.96142
1.93379
1.90684
1.88056
1.85494
1.82995
1.80556
1.78177
1.75855
1.73588
1.71376
1.69218
1.67112
1.65057
1.63053
1.611
1.59196
1.57343
1.55539
1.53784
1.52078
1.50422
1.48814
2.60528
2.63117
2.64645
2.65198
2.65042
2.6422
2.62783
2.60808
2.58384
2.55593
2.52513
2.49217
2.45768
2.42219
2.38615
2.34994
2.31384
2.27809
2.24285
2.20825
2.17439
2.14132
2.10906
2.07764
2.04706
2.0173
1.98833
1.96015
1.93272
1.90601
1.88
1.85465
1.82994
1.80584
1.78233
1.75939
1.737
1.71515
1.69382
1.673
1.65268
1.63286
1.61352
1.59466
1.57628
1.55838
1.54095
1.52399
1.5075
1.49148
2.6451
2.67426
2.69076
2.69566
2.69218
2.68105
2.66304
2.63924
2.61078
2.5787
2.54394
2.50733
2.46955
2.43118
2.39268
2.35439
2.31657
2.27944
2.24311
2.20769
2.17322
2.13972
2.1072
2.07564
2.04502
2.01531
1.98647
1.95845
1.93123
1.90475
1.87899
1.8539
1.82946
1.80564
1.7824
1.75973
1.7376
1.71599
1.6949
1.6743
1.65419
1.63455
1.61539
1.59669
1.57845
1.56066
1.54333
1.52646
1.51003
1.49404
2.69274
2.72589
2.74369
2.74745
2.74121
2.72612
2.70337
2.67443
2.64076
2.60366
2.56423
2.52339
2.4819
2.44032
2.39911
2.35858
2.31895
2.28037
2.24292
2.20666
2.17157
2.13766
2.10489
2.0732
2.04256
2.01291
1.98419
1.95634
1.92932
1.90308
1.87756
1.85274
1.82856
1.80499
1.78201
1.75959
1.7377
1.71632
1.69544
1.67504
1.65511
1.63565
1.61664
1.59807
1.57995
1.56227
1.54502
1.52821
1.51182
1.49587
2.75002
2.78807
2.80711
2.80891
2.79866
2.77819
2.74923
2.71379
2.67373
2.63061
2.58571
2.54006
2.4944
2.44932
2.4052
2.3623
2.32078
2.28073
2.24216
2.20506
2.1694
2.1351
2.10209
2.07031
2.03967
2.01009
1.9815
1.95384
1.92703
1.90102
1.87575
1.85117
1.82724
1.80392
1.78118
1.75899
1.73732
1.71615
1.69546
1.67525
1.65549
1.63617
1.61729
1.59885
1.58082
1.56322
1.54604
1.52928
1.51293
1.49699
2.81944
2.86351
2.88354
2.88203
2.86595
2.8381
2.801
2.75735
2.70947
2.6592
2.60799
2.55689
2.50666
2.4578
2.41061
2.36527
2.32185
2.28033
2.24068
2.2028
2.1666
2.13196
2.09878
2.06693
2.03632
2.00685
1.97842
1.95095
1.92436
1.89858
1.87355
1.84921
1.82553
1.80245
1.77993
1.75796
1.73649
1.71551
1.69501
1.67495
1.65533
1.63615
1.61739
1.59904
1.5811
1.56357
1.54644
1.52971
1.51338
1.49745
2.90453
2.95602
2.97631
2.96932
2.94468
2.90668
2.85893
2.80493
2.74753
2.68886
2.63044
2.57331
2.51813
2.46528
2.41495
2.36716
2.32187
2.27897
2.23832
2.19974
2.16309
2.12819
2.09488
2.06304
2.03251
2.00317
1.97492
1.94767
1.9213
1.89577
1.87098
1.84689
1.82344
1.80058
1.77828
1.75651
1.73524
1.71443
1.69408
1.67417
1.65468
1.63561
1.61694
1.59868
1.58081
1.56333
1.54624
1.52953
1.51321
1.49728
3.01052
3.07098
3.08993
3.07388
3.03663
2.98463
2.92293
2.85597
2.78713
2.7187
2.65219
2.5885
2.52811
2.47118
2.41772
2.36757
2.32054
2.27639
2.23486
2.19572
2.15873
2.12367
2.09034
2.05856
2.02817
1.99902
1.971
1.94398
1.91787
1.89258
1.86804
1.8442
1.82098
1.79834
1.77625
1.75467
1.73357
1.71293
1.69272
1.67294
1.65356
1.63459
1.616
1.5978
1.57998
1.56254
1.54547
1.52878
1.51246
1.49652
3.14538
3.21628
3.23047
3.19947
3.14356
3.07228
2.9924
2.90938
2.82695
2.74742
2.67204
2.60142
2.53571
2.47477
2.41833
2.36602
2.31747
2.27228
2.23009
2.19056
2.15339
2.1183
2.08505
2.05343
2.02326
1.99436
1.9666
1.93986
1.91402
1.88901
1.86474
1.84113
1.81815
1.79573
1.77384
1.75245
1.73151
1.71101
1.69094
1.67127
1.65199
1.6331
1.61458
1.59643
1.57865
1.56123
1.54418
1.52749
1.51116
1.4952
3.32204
3.40364
3.40606
3.35039
3.26686
3.16912
3.06581
2.96319
2.86501
2.77317
2.68839
2.61074
2.53985
2.47517
2.4161
2.36198
2.31224
2.26631
2.22373
2.18404
2.14689
2.11194
2.07892
2.04758
2.01771
1.98913
1.9617
1.93528
1.90976
1.88504
1.86104
1.8377
1.81496
1.79276
1.77107
1.74985
1.72907
1.70871
1.68876
1.66919
1.65
1.63118
1.61271
1.5946
1.57685
1.55945
1.5424
1.5257
1.50935
1.49336
3.56277
3.65088
3.62722
3.53093
3.40673
3.27308
3.14012
3.01419
2.89833
2.79341
2.69917
2.61479
2.53923
2.47139
2.41024
2.35484
2.30438
2.25813
2.2155
2.17595
2.13907
2.10446
2.07183
2.0409
2.01145
1.98328
1.95625
1.9302
1.90503
1.88065
1.85695
1.83389
1.8114
1.78942
1.76793
1.74689
1.72627
1.70604
1.6862
1.66673
1.64761
1.62884
1.61042
1.59235
1.57461
1.55721
1.54015
1.52343
1.50706
1.49103
3.90808
3.98519
3.90642
3.74363
3.56033
3.37905
3.20978
3.05732
2.92266
2.80475
2.70173
2.61157
2.53233
2.46227
2.3999
2.34396
2.2934
2.24735
2.2051
2.16606
2.12973
2.09571
2.06366
2.0333
2.0044
1.97675
1.95019
1.92459
1.89983
1.87581
1.85245
1.82969
1.80746
1.78572
1.76444
1.74357
1.7231
1.70301
1.68328
1.66389
1.64484
1.62613
1.60774
1.58968
1.57195
1.55455
1.53747
1.52073
1.50432
1.48825
4.43185
4.44607
4.25574
3.98622
3.71932
3.47723
3.26583
3.08524
2.93235
2.80297
2.693
2.59886
2.51756
2.44667
2.38424
2.32871
2.27883
2.23362
2.19228
2.15415
2.11872
2.08556
2.05431
2.02471
1.99649
1.96947
1.94349
1.91841
1.89412
1.87051
1.84753
1.82509
1.80315
1.78166
1.76059
1.73991
1.7196
1.69964
1.68001
1.6607
1.64172
1.62305
1.60469
1.58664
1.56891
1.55149
1.53439
1.51761
1.50116
1.48504
5.26692
5.08483
4.68151
4.24893
3.86895
3.55327
3.29663
3.08936
2.92138
2.78399
2.67027
2.57489
2.49377
2.42385
2.36279
2.3088
2.26051
2.21684
2.17696
2.1402
2.10602
2.074
2.0438
2.01513
1.98775
1.96149
1.93618
1.91169
1.88792
1.86479
1.84221
1.82013
1.7985
1.77728
1.75644
1.73595
1.7158
1.69596
1.67644
1.65721
1.63829
1.61966
1.60132
1.58328
1.56553
1.54809
1.53096
1.51414
1.49764
1.48147
6.70851
5.96741
5.15918
4.49499
3.9765
3.58179
3.2844
3.05803
2.8824
2.74331
2.63084
2.53805
2.46004
2.3933
2.33528
2.28411
2.23838
2.19701
2.15918
2.12424
2.09168
2.0611
2.03216
2.00461
1.97822
1.95283
1.92829
1.90447
1.8813
1.85867
1.83654
1.81485
1.79355
1.77262
1.75202
1.73173
1.71174
1.69204
1.67262
1.65347
1.6346
1.616
1.59767
1.57963
1.56187
1.54441
1.52724
1.51037
1.49381
1.47757
9.52729
7.15178
5.5234
4.56627
3.92846
3.48768
3.18082
2.96012
2.79495
2.66696
2.56476
2.48096
2.41064
2.35044
2.29796
2.2515
2.20978
2.17184
2.13696
2.10456
2.0742
2.04552
2.01823
1.99211
1.96698
1.94267
1.91908
1.89609
1.87362
1.85162
1.83002
1.80878
1.78787
1.76726
1.74694
1.72688
1.70707
1.68751
1.6682
1.64914
1.63032
1.61175
1.59343
1.57538
1.55759
1.54009
1.52286
1.50593
1.48931
1.47299
14.2955
8.34785
5.42963
4.22608
3.5877
3.19834
2.94796
2.77504
2.64702
2.54728
2.46664
2.39951
2.34227
2.2925
2.24846
2.2089
2.1729
2.13975
2.10889
2.07991
2.05245
2.02626
2.00112
1.97684
1.9533
1.93037
1.90796
1.88599
1.86441
1.84317
1.82222
1.80153
1.78109
1.76088
1.74088
1.72108
1.70149
1.6821
1.66291
1.64393
1.62517
1.60662
1.58831
1.57024
1.55241
1.53485
1.51755
1.50054
1.48383
1.46741
1.01269
1.01223
1.01136
1.01029
1.00924
1.00834
1.00769
1.00735
1.00738
1.00778
1.00858
1.00978
1.01137
1.01334
1.01568
1.01837
1.02139
1.02472
1.02834
1.03222
1.03634
1.04068
1.04521
1.04991
1.05475
1.05971
1.06477
1.06991
1.0751
1.08032
1.08556
1.09079
1.096
1.10118
1.1063
1.11134
1.11631
1.12117
1.12592
1.13056
1.13506
1.13941
1.14362
1.14767
1.15155
1.15526
1.15879
1.16214
1.16529
1.16826
1.17103
1.17361
1.17599
1.17817
1.18015
1.18192
1.1835
1.18488
1.18606
1.18704
1.18783
1.18843
1.18884
1.18906
1.1891
1.18896
1.18864
1.18815
1.18749
1.18666
1.18568
1.18454
1.18325
1.18181
1.18023
1.17851
1.17666
1.17468
1.17258
1.17036
1.16802
1.16558
1.16303
1.16038
1.15763
1.15479
1.15187
1.14886
1.14577
1.14261
1.13938
1.13609
1.13273
1.12931
1.12583
1.12231
1.11873
1.11512
1.11146
1.10776
1.10402
1.10026
1.09646
1.09263
1.08879
1.08492
1.08103
1.07712
1.07319
1.06926
1.06531
1.06135
1.05739
1.05342
1.04944
1.04546
1.04149
1.03751
1.03353
1.02955
1.02558
1.02162
1.01766
1.0137
1.00976
1.00582
1.00189
0.997972
0.994064
0.990167
0.986282
0.98241
0.97855
0.974703
0.970869
0.967049
0.963244
0.959452
0.955675
0.951913
0.948166
0.944434
0.940717
0.937015
0.933329
0.929657
0.926001
0.922361
0.918735
0.915125
0.911529
0.907949
0.904384
0.900833
0.897297
0.893776
0.890269
0.886777
0.883298
0.879833
0.876382
0.872945
0.869521
0.86611
0.862712
0.859327
0.855954
0.852593
0.849245
0.845908
0.842583
0.839269
0.835967
0.832675
0.829394
0.826124
0.822864
0.819614
0.816373
0.813142
0.809921
0.806708
0.803505
0.80031
0.797123
0.793945
0.790774
0.787612
0.784457
0.781309
0.778168
0.775035
0.771908
0.768787
0.765673
0.762566
0.759464
0.756368
0.753277
0.750192
0.747112
0.744037
0.740967
0.737902
0.734841
0.731785
0.728733
0.725685
0.722641
0.7196
0.716564
0.713531
0.710501
0.707474
0.704451
0.70143
0.698413
0.695398
0.692386
0.689376
0.686369
0.683364
0.680361
0.67736
0.674362
0.671365
0.66837
0.665377
0.662385
0.659395
0.656406
0.653419
0.650433
0.647448
0.644465
0.641482
0.638501
0.63552
0.63254
0.629561
0.626583
0.623606
0.620629
0.617653
0.614677
0.611702
0.608727
0.605753
0.602779
0.599805
0.596832
0.593859
0.590886
0.587913
0.584941
0.581968
0.578996
0.576023
0.573051
0.570079
0.567106
0.564134
0.561161
0.558188
0.555216
0.552243
0.54927
0.546296
0.543323
0.540349
0.537375
0.534401
0.531426
0.528452
0.525477
0.522502
0.519526
0.51655
0.513574
0.510598
0.507621
0.504644
0.501667
0.498689
0.495711
0.492733
0.489754
0.486775
0.483796
0.480816
0.477836
0.474855
0.471874
0.468893
0.465912
0.46293
0.459947
0.456965
0.453982
0.450999
0.448015
0.445031
0.442046
0.439062
0.436077
0.433091
0.430106
0.42712
0.424133
0.421146
0.418159
0.415172
0.412184
0.409196
0.406208
0.40322
0.400231
0.397241
0.394252
0.391262
0.388272
0.385282
0.382291
0.3793
0.376309
0.373318
0.370326
0.367334
0.364342
0.36135
0.358357
0.355364
0.352371
0.349378
0.346384
0.343391
0.340397
0.337403
0.334408
0.331414
0.328419
0.325424
0.322429
0.319434
0.316439
0.313443
0.310447
0.307451
0.304455
0.301459
0.298463
0.295466
0.292469
0.289472
0.286476
0.283478
0.280481
0.277484
0.274486
0.271489
0.268491
0.265493
0.262495
0.259498
0.256499
0.253501
0.250503
0.247505
0.244506
0.241508
0.238509
0.23551
0.232512
0.229513
0.226514
0.223515
0.220515
0.217516
0.214517
0.211517
0.208518
0.205518
0.202519
0.199519
0.196519
0.19352
0.19052
0.18752
0.18452
0.18152
0.17852
0.175521
0.172521
0.169521
0.166521
0.163521
0.16052
0.15752
0.15452
0.15152
0.14852
0.14552
0.142519
0.139519
0.136519
0.133519
0.130518
0.127518
0.124517
0.121517
0.118517
0.115516
0.112516
0.109515
0.106515
0.103514
0.100514
0.0975135
0.094513
0.0915126
0.0885122
0.0855118
0.0825114
0.079511
0.0765106
0.0735102
0.0705098
0.0675094
0.064509
0.0615086
0.0585082
0.0555078
0.0525074
0.049507
0.0465066
0.0435062
0.0405057
0.0375053
0.0345049
0.0315046
0.0285042
0.0255038
0.0225034
0.019503
0.0165027
0.0135023
0.0105019
0.00750152
0.0045011
0.00150051
1.01314
1.01269
1.012
1.0112
1.01043
1.00979
1.00937
1.00921
1.00936
1.00985
1.01069
1.01189
1.01344
1.01534
1.01759
1.02015
1.02303
1.0262
1.02964
1.03333
1.03726
1.04139
1.0457
1.05018
1.0548
1.05954
1.06438
1.0693
1.07428
1.07929
1.08432
1.08936
1.09438
1.09937
1.10431
1.10919
1.11399
1.11871
1.12332
1.12782
1.13219
1.13643
1.14053
1.14448
1.14827
1.1519
1.15536
1.15864
1.16175
1.16466
1.1674
1.16994
1.17229
1.17445
1.17642
1.17819
1.17977
1.18115
1.18234
1.18334
1.18415
1.18478
1.18521
1.18547
1.18555
1.18545
1.18517
1.18473
1.18412
1.18335
1.18242
1.18134
1.18011
1.17873
1.17721
1.17556
1.17377
1.17186
1.16982
1.16767
1.1654
1.16303
1.16055
1.15796
1.15529
1.15252
1.14966
1.14672
1.1437
1.14061
1.13744
1.13421
1.13092
1.12756
1.12415
1.12069
1.11718
1.11362
1.11002
1.10638
1.1027
1.09899
1.09525
1.09147
1.08768
1.08386
1.08002
1.07616
1.07228
1.06839
1.06449
1.06057
1.05665
1.05272
1.04878
1.04484
1.0409
1.03696
1.03302
1.02908
1.02514
1.0212
1.01727
1.01335
1.00943
1.00552
1.00161
0.997721
0.993837
0.989963
0.9861
0.982248
0.978408
0.97458
0.970765
0.966963
0.963174
0.959398
0.955636
0.951889
0.948155
0.944436
0.940731
0.937041
0.933365
0.929704
0.926058
0.922427
0.91881
0.915207
0.91162
0.908047
0.904488
0.900943
0.897413
0.893897
0.890395
0.886907
0.883433
0.879972
0.876524
0.87309
0.869669
0.86626
0.862864
0.859481
0.85611
0.852751
0.849403
0.846067
0.842743
0.83943
0.836128
0.832836
0.829555
0.826284
0.823024
0.819773
0.816532
0.8133
0.810077
0.806864
0.803659
0.800463
0.797275
0.794095
0.790923
0.787759
0.784602
0.781452
0.77831
0.775174
0.772046
0.768923
0.765807
0.762697
0.759593
0.756495
0.753402
0.750315
0.747233
0.744156
0.741083
0.738016
0.734953
0.731894
0.72884
0.72579
0.722743
0.719701
0.716662
0.713627
0.710595
0.707566
0.70454
0.701518
0.698498
0.695481
0.692467
0.689455
0.686446
0.683439
0.680434
0.677431
0.674431
0.671432
0.668435
0.66544
0.662446
0.659455
0.656464
0.653475
0.650487
0.647501
0.644515
0.641531
0.638548
0.635566
0.632585
0.629604
0.626624
0.623646
0.620667
0.61769
0.614713
0.611736
0.60876
0.605785
0.602809
0.599835
0.59686
0.593886
0.590912
0.587938
0.584964
0.581991
0.579017
0.576044
0.573071
0.570097
0.567124
0.564151
0.561177
0.558204
0.55523
0.552257
0.549283
0.546309
0.543334
0.54036
0.537385
0.534411
0.531436
0.52846
0.525485
0.522509
0.519533
0.516557
0.51358
0.510603
0.507626
0.504648
0.501671
0.498693
0.495714
0.492735
0.489756
0.486777
0.483797
0.480817
0.477837
0.474856
0.471875
0.468893
0.465911
0.462929
0.459947
0.456964
0.453981
0.450997
0.448013
0.445029
0.442045
0.43906
0.436074
0.433089
0.430103
0.427117
0.42413
0.421144
0.418156
0.415169
0.412181
0.409193
0.406205
0.403216
0.400227
0.397238
0.394248
0.391258
0.388268
0.385278
0.382287
0.379296
0.376305
0.373314
0.370322
0.36733
0.364338
0.361346
0.358353
0.35536
0.352367
0.349374
0.34638
0.343387
0.340393
0.337399
0.334404
0.33141
0.328415
0.32542
0.322425
0.31943
0.316435
0.313439
0.310444
0.307448
0.304452
0.301455
0.298459
0.295462
0.292466
0.289469
0.286472
0.283475
0.280478
0.27748
0.274483
0.271486
0.268488
0.26549
0.262492
0.259494
0.256496
0.253498
0.2505
0.247502
0.244503
0.241505
0.238506
0.235508
0.232509
0.22951
0.226511
0.223512
0.220513
0.217514
0.214515
0.211515
0.208516
0.205516
0.202517
0.199517
0.196517
0.193518
0.190518
0.187518
0.184518
0.181519
0.178519
0.175519
0.172519
0.169519
0.166519
0.163519
0.160519
0.157519
0.154519
0.151519
0.148519
0.145519
0.142518
0.139518
0.136518
0.133518
0.130517
0.127517
0.124517
0.121516
0.118516
0.115515
0.112515
0.109515
0.106514
0.103514
0.100513
0.0975129
0.0945125
0.0915121
0.0885118
0.0855114
0.082511
0.0795106
0.0765102
0.0735099
0.0705095
0.0675091
0.0645088
0.0615084
0.058508
0.0555076
0.0525072
0.0495068
0.0465064
0.043506
0.0405056
0.0375052
0.0345048
0.0315044
0.0285041
0.0255037
0.0225033
0.0195029
0.0165026
0.0135022
0.0105018
0.00750139
0.00450099
0.00150047
1.01402
1.01338
1.01268
1.01199
1.01136
1.01087
1.01057
1.01053
1.01076
1.01131
1.01218
1.01337
1.0149
1.01675
1.01892
1.0214
1.02417
1.02722
1.03052
1.03407
1.03784
1.04181
1.04596
1.05027
1.05472
1.05929
1.06395
1.0687
1.07351
1.07836
1.08323
1.08811
1.09298
1.09782
1.10262
1.10737
1.11204
1.11664
1.12113
1.12553
1.1298
1.13395
1.13796
1.14183
1.14555
1.14912
1.15252
1.15575
1.1588
1.16168
1.16438
1.1669
1.16923
1.17137
1.17333
1.17509
1.17667
1.17806
1.17926
1.18027
1.1811
1.18174
1.18221
1.18249
1.18259
1.18253
1.18229
1.18188
1.18132
1.18059
1.1797
1.17867
1.17748
1.17616
1.17469
1.17309
1.17136
1.1695
1.16752
1.16542
1.1632
1.16088
1.15846
1.15593
1.15331
1.1506
1.1478
1.14491
1.14195
1.13891
1.1358
1.13262
1.12938
1.12608
1.12272
1.11931
1.11585
1.11234
1.10879
1.10519
1.10156
1.0979
1.0942
1.09048
1.08672
1.08294
1.07914
1.07533
1.07149
1.06764
1.06377
1.05989
1.056
1.05211
1.04821
1.0443
1.04039
1.03648
1.03256
1.02865
1.02474
1.02083
1.01692
1.01302
1.00913
1.00524
1.00136
0.997488
0.993624
0.98977
0.985926
0.982092
0.978269
0.974458
0.970658
0.966871
0.963097
0.959335
0.955587
0.951851
0.94813
0.944422
0.940728
0.937048
0.933382
0.92973
0.926093
0.922469
0.91886
0.915265
0.911684
0.908117
0.904564
0.901026
0.897501
0.89399
0.890492
0.887008
0.883537
0.88008
0.876636
0.873204
0.869786
0.866379
0.862986
0.859604
0.856235
0.852877
0.849531
0.846196
0.842872
0.83956
0.836258
0.832967
0.829686
0.826415
0.823155
0.819903
0.816662
0.81343
0.810206
0.806992
0.803786
0.800589
0.7974
0.794219
0.791046
0.787881
0.784723
0.781572