/*--------------------------------*- C++ -*----------------------------------*\
| =========                 |                                                 |
| \\      /  F ield         | OpenFOAM: The Open Source CFD Toolbox           |
|  \\    /   O peration     | Version:  2306                                  |
|   \\  /    A nd           | Website:  www.openfoam.com                      |
|    \\/     M anipulation  |                                                 |
\*---------------------------------------------------------------------------*/
FoamFile
{
    version     2.0;
    format      ascii;
    arch        "LSB;label=32;scalar=64";
    class       volVectorField;
    location    "0.5";
    object      U;
}
// * * * * * * * * * * * * * * * * * * * * * * * * * * * * * * * * * * * * * //

dimensions      [0 1 -1 0 0 0 0];

internalField   nonuniform List<vector> 
47500
(
(0.708058 0.141126 0)
(0.605107 0.126852 0)
(0.442238 0.0756733 0)
(0.323205 0.0428889 0)
(0.252628 0.0249084 0)
(0.207935 0.0151468 0)
(0.177257 0.00977788 0)
(0.155189 0.00671789 0)
(0.138693 0.00487349 0)
(0.125941 0.00368955 0)
(0.115823 0.00288364 0)
(0.107638 0.00230732 0)
(0.100916 0.00187861 0)
(0.095332 0.00154968 0)
(0.0906514 0.00129107 0)
(0.0867008 0.00108369 0)
(0.0833489 0.000914672 0)
(0.0804941 0.000775016 0)
(0.0780567 0.000658247 0)
(0.0759734 0.000559595 0)
(0.0741929 0.000475475 0)
(0.0726734 0.000403137 0)
(0.0713808 0.000340443 0)
(0.0702865 0.000285699 0)
(0.069367 0.000237546 0)
(0.0686025 0.000194877 0)
(0.0679767 0.000156776 0)
(0.0674755 0.000122475 0)
(0.0670878 9.13176e-05 0)
(0.066804 6.27316e-05 0)
(0.0666166 3.62087e-05 0)
(0.0665197 1.12856e-05 0)
(0.0665091 -1.24748e-05 0)
(0.0665821 -3.55018e-05 0)
(0.0667377 -5.82346e-05 0)
(0.0669769 -8.11491e-05 0)
(0.0673026 -0.000104791 0)
(0.0677206 -0.000129832 0)
(0.0682403 -0.000157171 0)
(0.068876 -0.000188145 0)
(0.06965 -0.000225021 0)
(0.0705965 -0.000272256 0)
(0.0717721 -0.000339879 0)
(0.0732767 -0.000452845 0)
(0.0752993 -0.000676826 0)
(0.078216 -0.00118834 0)
(0.0828963 -0.0024707 0)
(0.0917718 -0.00591976 0)
(0.110511 -0.0158026 0)
(0.145431 -0.044918 0)
(0.990012 0.273751 0)
(0.981277 0.298007 0)
(0.863903 0.21609 0)
(0.734143 0.146999 0)
(0.62832 0.100193 0)
(0.545477 0.069771 0)
(0.48066 0.05016 0)
(0.429787 0.0373104 0)
(0.389455 0.0286159 0)
(0.357039 0.022513 0)
(0.330632 0.0180772 0)
(0.308863 0.0147523 0)
(0.290735 0.0121935 0)
(0.27551 0.0101803 0)
(0.262635 0.00856656 0)
(0.251688 0.00725239 0)
(0.242341 0.00616756 0)
(0.234337 0.00526144 0)
(0.22747 0.00449671 0)
(0.221574 0.00384531 0)
(0.216514 0.00328578 0)
(0.212179 0.00280146 0)
(0.208477 0.00237918 0)
(0.20533 0.00200839 0)
(0.202676 0.00168054 0)
(0.20046 0.00138856 0)
(0.198637 0.00112657 0)
(0.197169 0.000889531 0)
(0.196025 0.000673091 0)
(0.195179 0.000473388 0)
(0.194611 0.000286901 0)
(0.194304 0.000110318 0)
(0.194248 -5.96102e-05 0)
(0.194436 -0.000226233 0)
(0.194869 -0.000393193 0)
(0.195549 -0.000564704 0)
(0.19649 -0.000745954 0)
(0.197712 -0.000943747 0)
(0.199249 -0.00116757 0)
(0.201152 -0.00143151 0)
(0.203497 -0.00175783 0)
(0.206403 -0.00218417 0)
(0.210052 -0.00277851 0)
(0.214739 -0.00367194 0)
(0.220942 -0.00513171 0)
(0.229446 -0.00772188 0)
(0.241565 -0.0126535 0)
(0.259602 -0.0225931 0)
(0.286473 -0.0434321 0)
(0.320521 -0.0855706 0)
(1.02873 0.230537 0)
(1.06518 0.337273 0)
(1.02857 0.307935 0)
(0.952112 0.249931 0)
(0.866774 0.194722 0)
(0.785961 0.15009 0)
(0.714441 0.116323 0)
(0.653202 0.091316 0)
(0.601486 0.0727585 0)
(0.557967 0.0588158 0)
(0.521294 0.0481663 0)
(0.490281 0.0398887 0)
(0.463943 0.0333448 0)
(0.44148 0.0280901 0)
(0.422249 0.0238107 0)
(0.405731 0.0202813 0)
(0.391509 0.0173376 0)
(0.379243 0.0148576 0)
(0.368654 0.0127493 0)
(0.359515 0.0109422 0)
(0.351634 0.00938161 0)
(0.344853 0.00802428 0)
(0.33904 0.00683578 0)
(0.334081 0.00578824 0)
(0.329883 0.00485877 0)
(0.326365 0.00402836 0)
(0.323461 0.00328094 0)
(0.321113 0.00260273 0)
(0.319274 0.00198166 0)
(0.317906 0.0014069 0)
(0.316977 0.000868505 0)
(0.316463 0.000356939 0)
(0.31635 -0.000137274 0)
(0.316628 -0.000624055 0)
(0.317297 -0.00111438 0)
(0.318366 -0.00162112 0)
(0.319855 -0.00216028 0)
(0.321799 -0.00275291 0)
(0.324252 -0.00342818 0)
(0.327293 -0.00422851 0)
(0.33104 -0.00521841 0)
(0.335662 -0.0065002 0)
(0.341408 -0.0082425 0)
(0.348641 -0.0107327 0)
(0.357883 -0.0144732 0)
(0.369851 -0.0203507 0)
(0.385458 -0.0299078 0)
(0.405675 -0.0457475 0)
(0.430554 -0.0719419 0)
(0.456241 -0.112681 0)
(1.02485 0.170713 0)
(1.0701 0.31458 0)
(1.08052 0.338862 0)
(1.05259 0.311341 0)
(1.00162 0.267049 0)
(0.941437 0.222039 0)
(0.880405 0.182511 0)
(0.822876 0.149853 0)
(0.770722 0.123532 0)
(0.724425 0.102475 0)
(0.683788 0.0855987 0)
(0.648317 0.0719865 0)
(0.617434 0.0609113 0)
(0.590566 0.0518144 0)
(0.567192 0.0442709 0)
(0.546851 0.0379581 0)
(0.529145 0.0326295 0)
(0.513734 0.0280952 0)
(0.500327 0.0242081 0)
(0.488677 0.0208525 0)
(0.478573 0.0179366 0)
(0.469835 0.0153871 0)
(0.462309 0.0131442 0)
(0.455864 0.0111591 0)
(0.450386 0.00939125 0)
(0.445781 0.0078065 0)
(0.441965 0.00637576 0)
(0.438869 0.00507381 0)
(0.436435 0.00387838 0)
(0.434616 0.0027693 0)
(0.433372 0.0017278 0)
(0.432675 0.000735826 0)
(0.432506 -0.000224788 0)
(0.432853 -0.00117317 0)
(0.433716 -0.00213055 0)
(0.435109 -0.00312183 0)
(0.437056 -0.00417781 0)
(0.439601 -0.00533849 0)
(0.442808 -0.00665813 0)
(0.44677 -0.00821337 0)
(0.451618 -0.010116 0)
(0.457533 -0.0125337 0)
(0.464756 -0.0157238 0)
(0.473607 -0.0200869 0)
(0.484485 -0.0262496 0)
(0.497826 -0.0351782 0)
(0.513993 -0.0483005 0)
(0.532978 -0.0675524 0)
(0.553672 -0.0950989 0)
(0.572662 -0.131815 0)
(1.01676 0.128188 0)
(1.05701 0.275119 0)
(1.08731 0.331706 0)
(1.09071 0.333618 0)
(1.07009 0.308319 0)
(1.03427 0.272656 0)
(0.990736 0.235656 0)
(0.944689 0.201449 0)
(0.899383 0.171492 0)
(0.856629 0.145945 0)
(0.817293 0.124422 0)
(0.781667 0.106361 0)
(0.749723 0.0911942 0)
(0.721267 0.0784161 0)
(0.696028 0.0675989 0)
(0.673712 0.0583915 0)
(0.654029 0.0505095 0)
(0.636706 0.0437233 0)
(0.621494 0.0378474 0)
(0.608169 0.0327319 0)
(0.596532 0.0282544 0)
(0.586409 0.0243145 0)
(0.577644 0.0208295 0)
(0.570104 0.0177301 0)
(0.563669 0.0149579 0)
(0.55824 0.0124633 0)
(0.553727 0.0102034 0)
(0.550054 0.00814056 0)
(0.547159 0.00624108 0)
(0.544988 0.00447427 0)
(0.5435 0.00281128 0)
(0.54266 0.00122411 0)
(0.542448 -0.000315521 0)
(0.542852 -0.00183749 0)
(0.543872 -0.00337492 0)
(0.54552 -0.00496636 0)
(0.547823 -0.00665888 0)
(0.550827 -0.00851246 0)
(0.554595 -0.0106064 0)
(0.559219 -0.0130488 0)
(0.564821 -0.0159909 0)
(0.571554 -0.0196474 0)
(0.579612 -0.0243275 0)
(0.589216 -0.0304753 0)
(0.600589 -0.0387222 0)
(0.613884 -0.0499356 0)
(0.629053 -0.0652259 0)
(0.645599 -0.0858278 0)
(0.662201 -0.112692 0)
(0.676397 -0.145455 0)
(1.01072 0.0991317 0)
(1.04301 0.23517 0)
(1.0786 0.30702 0)
(1.09883 0.330721 0)
(1.09974 0.324345 0)
(1.08498 0.301816 0)
(1.05947 0.272329 0)
(1.02763 0.24131 0)
(0.992875 0.211623 0)
(0.957573 0.184563 0)
(0.92325 0.160547 0)
(0.890801 0.139538 0)
(0.860697 0.121294 0)
(0.83313 0.105495 0)
(0.808123 0.0918136 0)
(0.785598 0.0799474 0)
(0.765419 0.0696281 0)
(0.747427 0.0606247 0)
(0.731453 0.0527408 0)
(0.71733 0.0458105 0)
(0.704898 0.0396939 0)
(0.694008 0.034273 0)
(0.684524 0.0294475 0)
(0.676325 0.0251322 0)
(0.669298 0.0212537 0)
(0.663347 0.0177484 0)
(0.658386 0.0145606 0)
(0.65434 0.0116407 0)
(0.651144 0.00894379 0)
(0.648747 0.00642855 0)
(0.647103 0.00405569 0)
(0.64618 0.00178685 0)
(0.645954 -0.000416898 0)
(0.646414 -0.00259662 0)
(0.647557 -0.00479764 0)
(0.649395 -0.00707216 0)
(0.651953 -0.00948288 0)
(0.65527 -0.0121079 0)
(0.659404 -0.0150476 0)
(0.664431 -0.018434 0)
(0.670446 -0.0224438 0)
(0.677563 -0.0273161 0)
(0.685905 -0.0333742 0)
(0.695584 -0.0410506 0)
(0.706666 -0.0509095 0)
(0.719099 -0.0636481 0)
(0.732602 -0.080046 0)
(0.74652 -0.100805 0)
(0.75968 -0.126212 0)
(0.770422 -0.15555 0)
(1.00696 0.078706 0)
(1.03212 0.199738 0)
(1.0665 0.27624 0)
(1.09406 0.313697 0)
(1.10825 0.322645 0)
(1.10913 0.313168 0)
(1.09906 0.29316 0)
(1.08101 0.268129 0)
(1.0578 0.241583 0)
(1.03174 0.215573 0)
(1.00457 0.191183 0)
(0.977505 0.168898 0)
(0.95136 0.148848 0)
(0.926632 0.130974 0)
(0.903602 0.115118 0)
(0.882402 0.101084 0)
(0.863067 0.0886696 0)
(0.845566 0.0776804 0)
(0.829829 0.0679377 0)
(0.815765 0.0592819 0)
(0.803271 0.0515718 0)
(0.792244 0.0446837 0)
(0.782578 0.0385092 0)
(0.774176 0.0329535 0)
(0.766943 0.0279329 0)
(0.760797 0.0233737 0)
(0.755659 0.0192097 0)
(0.751463 0.0153813 0)
(0.748149 0.0118336 0)
(0.745668 0.0085155 0)
(0.743976 0.00537798 0)
(0.743044 0.00237277 0)
(0.742847 -0.000549189 0)
(0.743374 -0.00343962 0)
(0.74462 -0.00635521 0)
(0.746593 -0.00936044 0)
(0.749314 -0.0125314 0)
(0.752813 -0.0159604 0)
(0.757134 -0.019763 0)
(0.762331 -0.0240857 0)
(0.768469 -0.0291165 0)
(0.775613 -0.035098 0)
(0.783816 -0.0423397 0)
(0.793101 -0.0512296 0)
(0.803418 -0.0622347 0)
(0.81459 -0.0758777 0)
(0.82624 -0.0926673 0)
(0.837726 -0.112955 0)
(0.848109 -0.136703 0)
(0.856285 -0.163172 0)
(1.00471 0.0639288 0)
(1.02437 0.169811 0)
(1.05518 0.244955 0)
(1.08471 0.289745 0)
(1.1061 0.309618 0)
(1.11748 0.311214 0)
(1.11927 0.300617 0)
(1.11301 0.282689 0)
(1.10065 0.260963 0)
(1.08406 0.237828 0)
(1.06488 0.214794 0)
(1.04438 0.192751 0)
(1.02351 0.172169 0)
(1.00297 0.153252 0)
(0.983225 0.136041 0)
(0.964571 0.120479 0)
(0.947193 0.106462 0)
(0.931183 0.0938607 0)
(0.916573 0.0825398 0)
(0.903355 0.0723659 0)
(0.89149 0.0632131 0)
(0.880926 0.054965 0)
(0.871601 0.047515 0)
(0.863447 0.0407665 0)
(0.856397 0.0346321 0)
(0.850386 0.0290322 0)
(0.845353 0.023894 0)
(0.841242 0.0191506 0)
(0.838004 0.0147396 0)
(0.835593 0.0106016 0)
(0.833975 0.00667949 0)
(0.83312 0.00291633 0)
(0.833008 -0.000745793 0)
(0.833624 -0.00436785 0)
(0.834965 -0.00801613 0)
(0.837034 -0.0117651 0)
(0.839845 -0.0157009 0)
(0.843416 -0.0199258 0)
(0.847777 -0.0245636 0)
(0.852958 -0.0297664 0)
(0.85899 -0.0357217 0)
(0.865895 -0.04266 0)
(0.873672 -0.0508609 0)
(0.882272 -0.0606533 0)
(0.891575 -0.0724042 0)
(0.901344 -0.0864861 0)
(0.91119 -0.103211 0)
(0.920546 -0.122719 0)
(0.928694 -0.144832 0)
(0.934889 -0.168902 0)
(1.00335 0.0528705 0)
(1.01892 0.144905 0)
(1.04573 0.21562 0)
(1.0745 0.263238 0)
(1.09913 0.290072 0)
(1.11694 0.300134 0)
(1.12715 0.297754 0)
(1.13018 0.286848 0)
(1.12712 0.270593 0)
(1.11929 0.251376 0)
(1.10799 0.230892 0)
(1.09438 0.210279 0)
(1.07941 0.190261 0)
(1.06384 0.171267 0)
(1.04823 0.153521 0)
(1.03299 0.137116 0)
(1.01841 0.122058 0)
(1.00469 0.108299 0)
(0.991947 0.0957655 0)
(0.980247 0.0843647 0)
(0.969619 0.0739997 0)
(0.960062 0.0645727 0)
(0.951558 0.0559887 0)
(0.944076 0.0481575 0)
(0.937579 0.0409937 0)
(0.932026 0.0344174 0)
(0.927374 0.0283534 0)
(0.923583 0.0227311 0)
(0.920615 0.017483 0)
(0.918437 0.0125443 0)
(0.917018 0.00785146 0)
(0.916336 0.00334093 0)
(0.916372 -0.0010522 0)
(0.917115 -0.00539613 0)
(0.918557 -0.00976447 0)
(0.920699 -0.0142388 0)
(0.923547 -0.0189119 0)
(0.92711 -0.023891 0)
(0.931399 -0.0293028 0)
(0.936425 -0.0352972 0)
(0.94219 -0.0420526 0)
(0.948679 -0.0497788 0)
(0.95585 -0.0587175 0)
(0.963612 -0.0691368 0)
(0.971805 -0.081315 0)
(0.980176 -0.0955072 0)
(0.988362 -0.111891 0)
(0.99589 -0.130488 0)
(1.00222 -0.151076 0)
(1.00683 -0.173117 0)
(1.00249 0.0443077 0)
(1.01505 0.124158 0)
(1.03815 0.189092 0)
(1.06495 0.236619 0)
(1.09042 0.267282 0)
(1.11174 0.283266 0)
(1.12753 0.287452 0)
(1.13744 0.282785 0)
(1.14186 0.271908 0)
(1.14155 0.256994 0)
(1.13745 0.239725 0)
(1.13048 0.221342 0)
(1.12148 0.202718 0)
(1.11117 0.184445 0)
(1.10014 0.166897 0)
(1.08884 0.150297 0)
(1.07763 0.134759 0)
(1.06678 0.120324 0)
(1.05647 0.106983 0)
(1.04683 0.0946937 0)
(1.03793 0.0833983 0)
(1.02985 0.0730258 0)
(1.02258 0.0635007 0)
(1.01615 0.0547454 0)
(1.01054 0.046683 0)
(1.00574 0.039238 0)
(1.00173 0.0323373 0)
(0.998481 0.0259097 0)
(0.995974 0.0198862 0)
(0.994185 0.0141988 0)
(0.993094 0.00878034 0)
(0.992683 0.00356283 0)
(0.992939 -0.00152341 0)
(0.993852 -0.00655152 0)
(0.995414 -0.0115998 0)
(0.997624 -0.0167542 0)
(1.00048 -0.0221103 0)
(1.00398 -0.0277767 0)
(1.00812 -0.0338776 0)
(1.0129 -0.040556 0)
(1.0183 -0.0479756 0)
(1.02426 -0.0563212 0)
(1.03074 -0.0657958 0)
(1.0376 -0.0766121 0)
(1.04468 -0.0889753 0)
(1.05173 -0.103054 0)
(1.05843 -0.118939 0)
(1.0644 -0.136589 0)
(1.06922 -0.155783 0)
(1.07253 -0.176083 0)
(1.00193 0.0374798 0)
(1.01223 0.106747 0)
(1.03212 0.16548 0)
(1.05656 0.211135 0)
(1.08152 0.243327 0)
(1.1044 0.263055 0)
(1.1236 0.272104 0)
(1.13833 0.272569 0)
(1.14845 0.266521 0)
(1.15429 0.255812 0)
(1.1564 0.241985 0)
(1.15545 0.226264 0)
(1.1521 0.209581 0)
(1.14698 0.192619 0)
(1.14063 0.175857 0)
(1.1335 0.159621 0)
(1.12598 0.144118 0)
(1.11836 0.129465 0)
(1.11086 0.115721 0)
(1.10367 0.102899 0)
(1.0969 0.090979 0)
(1.09064 0.0799246 0)
(1.08496 0.0696842 0)
(1.07989 0.0601982 0)
(1.07546 0.0514026 0)
(1.07167 0.0432308 0)
(1.06853 0.035615 0)
(1.06603 0.0284874 0)
(1.06415 0.0217802 0)
(1.0629 0.0154251 0)
(1.06226 0.00935363 0)
(1.06221 0.00349587 0)
(1.06276 -0.00222031 0)
(1.0639 -0.00787054 0)
(1.06561 -0.0135354 0)
(1.06789 -0.019302 0)
(1.07074 -0.0252662 0)
(1.07415 -0.0315342 0)
(1.07811 -0.0382246 0)
(1.08259 -0.0454698 0)
(1.08756 -0.0534163 0)
(1.09296 -0.062223 0)
(1.0987 -0.0720571 0)
(1.10467 -0.083084 0)
(1.11069 -0.0954517 0)
(1.11653 -0.109268 0)
(1.12192 -0.124568 0)
(1.12655 -0.141284 0)
(1.13011 -0.15921 0)
(1.13232 -0.177996 0)
(1.00154 0.0319033 0)
(1.01014 0.0919933 0)
(1.02733 0.144582 0)
(1.04939 0.187342 0)
(1.07314 0.219454 0)
(1.09635 0.241192 0)
(1.1174 0.25356 0)
(1.13529 0.257972 0)
(1.14957 0.255974 0)
(1.16022 0.249065 0)
(1.16747 0.238581 0)
(1.17173 0.225654 0)
(1.17348 0.211198 0)
(1.17322 0.195926 0)
(1.1714 0.180378 0)
(1.16844 0.164946 0)
(1.16469 0.149907 0)
(1.16046 0.135445 0)
(1.156 0.121676 0)
(1.1515 0.108661 0)
(1.14711 0.0964243 0)
(1.14295 0.0849613 0)
(1.13911 0.0742475 0)
(1.13565 0.0642443 0)
(1.13263 0.0549035 0)
(1.13006 0.0461704 0)
(1.12798 0.0379859 0)
(1.12639 0.0302882 0)
(1.1253 0.023013 0)
(1.12472 0.0160947 0)
(1.12463 0.00946579 0)
(1.12505 0.00305658 0)
(1.12596 -0.00320519 0)
(1.12736 -0.00939533 0)
(1.12926 -0.0155942 0)
(1.13163 -0.021888 0)
(1.13448 -0.0283699 0)
(1.13779 -0.0351414 0)
(1.14155 -0.042313 0)
(1.14571 -0.0500047 0)
(1.15023 -0.0583452 0)
(1.15505 -0.0674691 0)
(1.16008 -0.0775117 0)
(1.16519 -0.0885998 0)
(1.17023 -0.100839 0)
(1.17498 -0.114293 0)
(1.17922 -0.128967 0)
(1.1827 -0.144781 0)
(1.18518 -0.161553 0)
(1.18646 -0.179002 0)
(1.00126 0.0272583 0)
(1.00854 0.0793616 0)
(1.0235 0.126089 0)
(1.04334 0.165415 0)
(1.06559 0.196366 0)
(1.08837 0.218794 0)
(1.1102 0.23318 0)
(1.13002 0.240419 0)
(1.14718 0.241617 0)
(1.16144 0.237936 0)
(1.17278 0.230486 0)
(1.1814 0.220258 0)
(1.18759 0.2081 0)
(1.19169 0.194711 0)
(1.19408 0.180646 0)
(1.19508 0.166332 0)
(1.19503 0.152092 0)
(1.19421 0.138158 0)
(1.19284 0.12469 0)
(1.19115 0.111794 0)
(1.18928 0.0995292 0)
(1.18738 0.0879239 0)
(1.18555 0.0769797 0)
(1.18387 0.0666795 0)
(1.18242 0.0569926 0)
(1.18124 0.0478779 0)
(1.18037 0.0392869 0)
(1.17983 0.0311657 0)
(1.17965 0.0234563 0)
(1.17983 0.0160971 0)
(1.1804 0.0090239 0)
(1.18135 0.00216929 0)
(1.18268 -0.00453708 0)
(1.18441 -0.0111692 0)
(1.18652 -0.0178052 0)
(1.18901 -0.0245281 0)
(1.19188 -0.0314267 0)
(1.19509 -0.0385957 0)
(1.19864 -0.0461364 0)
(1.20249 -0.0541557 0)
(1.20658 -0.062765 0)
(1.21084 -0.0720768 0)
(1.21519 -0.0821995 0)
(1.2195 -0.0932294 0)
(1.22364 -0.10524 0)
(1.22742 -0.118267 0)
(1.23066 -0.132297 0)
(1.23314 -0.147248 0)
(1.2347 -0.162964 0)
(1.23516 -0.179217 0)
(1.00105 0.0233246 0)
(1.0073 0.0684347 0)
(1.02042 0.109675 0)
(1.03827 0.145332 0)
(1.05893 0.17442 0)
(1.08087 0.19657 0)
(1.10277 0.211924 0)
(1.12361 0.221004 0)
(1.14267 0.224566 0)
(1.15953 0.223479 0)
(1.17403 0.21863 0)
(1.18617 0.210857 0)
(1.19609 0.200912 0)
(1.204 0.189443 0)
(1.21016 0.176991 0)
(1.21482 0.163991 0)
(1.21826 0.150786 0)
(1.22071 0.137637 0)
(1.22239 0.124739 0)
(1.2235 0.112228 0)
(1.22419 0.100194 0)
(1.22461 0.0886932 0)
(1.22488 0.0777504 0)
(1.22509 0.0673693 0)
(1.22531 0.0575363 0)
(1.22562 0.0482246 0)
(1.22605 0.0393971 0)
(1.22666 0.0310093 0)
(1.22747 0.0230102 0)
(1.22851 0.0153445 0)
(1.2298 0.00795252 0)
(1.23134 0.000770908 0)
(1.23315 -0.00626711 0)
(1.23524 -0.013232 0)
(1.2376 -0.0201979 0)
(1.24023 -0.0272434 0)
(1.24312 -0.0344511 0)
(1.24626 -0.041908 0)
(1.24962 -0.0497053 0)
(1.25317 -0.0579372 0)
(1.25684 -0.0666988 0)
(1.26058 -0.0760833 0)
(1.2643 -0.0861768 0)
(1.26789 -0.0970519 0)
(1.27122 -0.108759 0)
(1.27414 -0.121315 0)
(1.27649 -0.134695 0)
(1.27812 -0.148823 0)
(1.27886 -0.163565 0)
(1.27861 -0.178734 0)
(1.00089 0.0199449 0)
(1.00633 0.0588874 0)
(1.01792 0.0950396 0)
(1.03402 0.12697 0)
(1.05314 0.153759 0)
(1.07404 0.174938 0)
(1.09557 0.190442 0)
(1.1168 0.200534 0)
(1.137 0.205704 0)
(1.15566 0.206582 0)
(1.17252 0.203852 0)
(1.18743 0.198202 0)
(1.20041 0.190274 0)
(1.21155 0.180649 0)
(1.22099 0.169829 0)
(1.22893 0.158234 0)
(1.23555 0.14621 0)
(1.24106 0.13403 0)
(1.24563 0.121906 0)
(1.24945 0.109996 0)
(1.25265 0.0984142 0)
(1.25538 0.0872355 0)
(1.25775 0.0765062 0)
(1.25987 0.0662474 0)
(1.26181 0.0564612 0)
(1.26365 0.0471343 0)
(1.26545 0.0382409 0)
(1.26726 0.0297461 0)
(1.26912 0.0216073 0)
(1.27106 0.0137758 0)
(1.27311 0.00619765 0)
(1.27528 -0.00118507 0)
(1.2776 -0.00843437 0)
(1.28008 -0.0156158 0)
(1.28271 -0.0227986 0)
(1.2855 -0.0300552 0)
(1.28845 -0.0374614 0)
(1.29153 -0.0450959 0)
(1.29472 -0.0530396 0)
(1.29798 -0.0613744 0)
(1.30128 -0.0701809 0)
(1.30453 -0.0795356 0)
(1.30768 -0.0895064 0)
(1.31061 -0.100147 0)
(1.31321 -0.111492 0)
(1.31537 -0.123545 0)
(1.31695 -0.136278 0)
(1.31782 -0.149619 0)
(1.31786 -0.163454 0)
(1.31697 -0.177631 0)
(1.00077 0.0170033 0)
(1.00555 0.050463 0)
(1.01588 0.0819117 0)
(1.03048 0.110166 0)
(1.04816 0.134402 0)
(1.06794 0.154125 0)
(1.08886 0.169156 0)
(1.11006 0.179585 0)
(1.13084 0.185708 0)
(1.15069 0.187964 0)
(1.16924 0.186869 0)
(1.18627 0.182969 0)
(1.2017 0.176801 0)
(1.2155 0.168865 0)
(1.22775 0.159612 0)
(1.23854 0.149432 0)
(1.248 0.138658 0)
(1.25629 0.127559 0)
(1.26353 0.116355 0)
(1.26988 0.105214 0)
(1.27547 0.0942625 0)
(1.28042 0.0835921 0)
(1.28484 0.0732631 0)
(1.28883 0.0633111 0)
(1.29247 0.0537512 0)
(1.29585 0.0445818 0)
(1.29902 0.0357878 0)
(1.30204 0.0273435 0)
(1.30496 0.0192143 0)
(1.30781 0.0113588 0)
(1.31064 0.0037296 0)
(1.31347 -0.00372541 0)
(1.31631 -0.0110625 0)
(1.31919 -0.0183415 0)
(1.32211 -0.0256255 0)
(1.32508 -0.0329805 0)
(1.32808 -0.0404748 0)
(1.33112 -0.0481785 0)
(1.33416 -0.0561625 0)
(1.33717 -0.064497 0)
(1.34012 -0.0732499 0)
(1.34293 -0.0824833 0)
(1.34555 -0.0922505 0)
(1.34789 -0.102591 0)
(1.34986 -0.113527 0)
(1.35134 -0.125055 0)
(1.35223 -0.137143 0)
(1.35243 -0.149728 0)
(1.35184 -0.162713 0)
(1.35039 -0.175971 0)
(1.00067 0.014412 0)
(1.00492 0.0429567 0)
(1.01421 0.0700566 0)
(1.02752 0.0947394 0)
(1.04391 0.116289 0)
(1.06259 0.134228 0)
(1.08277 0.148321 0)
(1.10367 0.15855 0)
(1.12467 0.165075 0)
(1.14522 0.16819 0)
(1.16494 0.168273 0)
(1.18356 0.165748 0)
(1.20088 0.16105 0)
(1.21685 0.154602 0)
(1.23142 0.146795 0)
(1.24465 0.13798 0)
(1.25658 0.128463 0)
(1.26733 0.118503 0)
(1.27698 0.108311 0)
(1.28565 0.098058 0)
(1.29344 0.0878772 0)
(1.30047 0.077867 0)
(1.30682 0.0680977 0)
(1.31259 0.0586147 0)
(1.31787 0.049443 0)
(1.32272 0.0405906 0)
(1.32722 0.0320513 0)
(1.33143 0.0238076 0)
(1.33539 0.0158326 0)
(1.33914 0.00809181 0)
(1.34274 0.000544556 0)
(1.34621 -0.00685504 0)
(1.34957 -0.0141571 0)
(1.35285 -0.0214152 0)
(1.35606 -0.028686 0)
(1.3592 -0.0360284 0)
(1.36227 -0.0435031 0)
(1.36527 -0.0511715 0)
(1.36818 -0.059095 0)
(1.37096 -0.0673334 0)
(1.37359 -0.0759429 0)
(1.376 -0.0849737 0)
(1.37815 -0.094467 0)
(1.37996 -0.104452 0)
(1.38135 -0.11494 0)
(1.38223 -0.125924 0)
(1.38251 -0.137373 0)
(1.38212 -0.149228 0)
(1.38097 -0.161408 0)
(1.379 -0.173806 0)
(1.0006 0.0121022 0)
(1.00441 0.0362023 0)
(1.01285 0.0592701 0)
(1.02506 0.0805129 0)
(1.04031 0.0993212 0)
(1.05797 0.115259 0)
(1.07736 0.128074 0)
(1.09782 0.137684 0)
(1.11877 0.14416 0)
(1.13969 0.147688 0)
(1.16019 0.148538 0)
(1.17994 0.14703 0)
(1.19872 0.143512 0)
(1.21639 0.138329 0)
(1.23286 0.131814 0)
(1.24811 0.124273 0)
(1.26215 0.115978 0)
(1.27502 0.107166 0)
(1.28679 0.0980357 0)
(1.29752 0.0887517 0)
(1.3073 0.0794446 0)
(1.31621 0.0702149 0)
(1.32434 0.0611369 0)
(1.33176 0.0522616 0)
(1.33856 0.0436204 0)
(1.3448 0.0352281 0)
(1.35055 0.0270856 0)
(1.35587 0.019182 0)
(1.36081 0.0114971 0)
(1.36543 0.00400297 0)
(1.36975 -0.00333486 0)
(1.37383 -0.010556 0)
(1.37769 -0.0177043 0)
(1.38134 -0.024827 0)
(1.38482 -0.031974 0)
(1.38813 -0.0391972 0)
(1.39126 -0.0465494 0)
(1.39423 -0.0540839 0)
(1.39701 -0.0618531 0)
(1.39958 -0.0699071 0)
(1.40191 -0.078292 0)
(1.40395 -0.0870478 0)
(1.40567 -0.096206 0)
(1.40699 -0.105787 0)
(1.40786 -0.115796 0)
(1.4082 -0.126222 0)
(1.40794 -0.137034 0)
(1.40701 -0.148182 0)
(1.40535 -0.159594 0)
(1.40292 -0.171181 0)
(1.00054 0.0100193 0)
(1.00401 0.0300625 0)
(1.01173 0.0493745 0)
(1.02303 0.0673154 0)
(1.0373 0.0833767 0)
(1.05403 0.0971758 0)
(1.07265 0.108467 0)
(1.0926 0.117139 0)
(1.11335 0.123204 0)
(1.13441 0.126772 0)
(1.15537 0.12803 0)
(1.17592 0.127218 0)
(1.19578 0.124602 0)
(1.21476 0.120462 0)
(1.23275 0.115072 0)
(1.24965 0.108689 0)
(1.26544 0.101552 0)
(1.28011 0.0938668 0)
(1.29369 0.0858153 0)
(1.3062 0.0775476 0)
(1.31772 0.0691865 0)
(1.3283 0.0608288 0)
(1.33801 0.0525478 0)
(1.34691 0.0443958 0)
(1.35508 0.0364073 0)
(1.36257 0.0286007 0)
(1.36946 0.0209817 0)
(1.37579 0.0135446 0)
(1.38163 0.00627461 0)
(1.38703 -0.000850785 0)
(1.39202 -0.00786024 0)
(1.39665 -0.0147875 0)
(1.40095 -0.0216703 0)
(1.40495 -0.0285496 0)
(1.40866 -0.0354687 0)
(1.41211 -0.0424725 0)
(1.41529 -0.0496063 0)
(1.41821 -0.0569156 0)
(1.42086 -0.0644443 0)
(1.42323 -0.0722338 0)
(1.42528 -0.0803215 0)
(1.42698 -0.0887385 0)
(1.4283 -0.0975082 0)
(1.42918 -0.106644 0)
(1.42957 -0.116147 0)
(1.42942 -0.126003 0)
(1.42866 -0.136183 0)
(1.42725 -0.146641 0)
(1.42512 -0.157317 0)
(1.42226 -0.168132 0)
(1.00049 0.00811861 0)
(1.00368 0.024422 0)
(1.01084 0.0402143 0)
(1.02138 0.0549862 0)
(1.03481 0.0683227 0)
(1.05073 0.0798995 0)
(1.06865 0.089494 0)
(1.08808 0.0969871 0)
(1.10854 0.102356 0)
(1.12958 0.105662 0)
(1.15081 0.107028 0)
(1.17188 0.106629 0)
(1.19252 0.104666 0)
(1.2125 0.101359 0)
(1.23166 0.0969265 0)
(1.24988 0.0915813 0)
(1.26708 0.0855209 0)
(1.28322 0.0789231 0)
(1.2983 0.0719438 0)
(1.31232 0.0647155 0)
(1.32532 0.0573483 0)
(1.33732 0.0499301 0)
(1.34839 0.0425288 0)
(1.35857 0.0351945 0)
(1.36792 0.0279608 0)
(1.37651 0.0208477 0)
(1.38439 0.0138629 0)
(1.39161 0.00700408 0)
(1.39824 0.00026045 0)
(1.40431 -0.00638596 0)
(1.40988 -0.0129589 0)
(1.41499 -0.0194867 0)
(1.41967 -0.0260015 0)
(1.42394 -0.0325383 0)
(1.42785 -0.0391339 0)
(1.43139 -0.0458265 0)
(1.43459 -0.0526544 0)
(1.43745 -0.0596556 0)
(1.43996 -0.0668664 0)
(1.44211 -0.0743202 0)
(1.44389 -0.0820465 0)
(1.44526 -0.0900692 0)
(1.4462 -0.0984048 0)
(1.44667 -0.107061 0)
(1.44662 -0.116035 0)
(1.44601 -0.125311 0)
(1.4448 -0.134863 0)
(1.44294 -0.144647 0)
(1.44039 -0.154611 0)
(1.43713 -0.164688 0)
(1.00045 0.00636272 0)
(1.00342 0.0191822 0)
(1.01012 0.0316517 0)
(1.02005 0.0433748 0)
(1.0328 0.0540229 0)
(1.04803 0.0633313 0)
(1.06534 0.0711098 0)
(1.08428 0.0772461 0)
(1.10443 0.0817016 0)
(1.12537 0.0845034 0)
(1.14671 0.0857324 0)
(1.16811 0.0855099 0)
(1.18929 0.0839853 0)
(1.20999 0.0813239 0)
(1.23003 0.0776961 0)
(1.24926 0.0732698 0)
(1.26757 0.0682036 0)
(1.28489 0.0626427 0)
(1.30118 0.0567157 0)
(1.31641 0.0505337 0)
(1.33061 0.0441898 0)
(1.34378 0.0377593 0)
(1.35597 0.0313014 0)
(1.36721 0.0248599 0)
(1.37755 0.0184652 0)
(1.38705 0.0121356 0)
(1.39575 0.00587925 0)
(1.40371 -0.000304804 0)
(1.41098 -0.00642482 0)
(1.41761 -0.0124953 0)
(1.42364 -0.018536 0)
(1.42912 -0.0245706 0)
(1.43409 -0.030626 0)
(1.43858 -0.0367316 0)
(1.44261 -0.0429183 0)
(1.4462 -0.049218 0)
(1.44937 -0.0556623 0)
(1.45213 -0.0622822 0)
(1.45448 -0.069107 0)
(1.45641 -0.076163 0)
(1.45791 -0.0834728 0)
(1.45896 -0.0910537 0)
(1.45954 -0.0989166 0)
(1.45961 -0.107065 0)
(1.45915 -0.115491 0)
(1.45811 -0.124181 0)
(1.45647 -0.133107 0)
(1.45419 -0.142232 0)
(1.45125 -0.151507 0)
(1.44761 -0.160876 0)
(1.00042 0.00471963 0)
(1.00323 0.014257 0)
(1.00957 0.0235627 0)
(1.01902 0.0323405 0)
(1.03123 0.0403406 0)
(1.0459 0.0473583 0)
(1.06269 0.053241 0)
(1.08121 0.0578925 0)
(1.10106 0.0612714 0)
(1.12185 0.0633854 0)
(1.14321 0.0642838 0)
(1.16481 0.0640485 0)
(1.18634 0.0627849 0)
(1.20755 0.0606123 0)
(1.22823 0.0576567 0)
(1.2482 0.0540439 0)
(1.26733 0.0498945 0)
(1.28554 0.0453199 0)
(1.30274 0.04042 0)
(1.31892 0.0352817 0)
(1.33404 0.0299783 0)
(1.34812 0.0245697 0)
(1.36118 0.019103 0)
(1.37324 0.0136134 0)
(1.38435 0.00812513 0)
(1.39455 0.00265293 0)
(1.40388 -0.00279689 0)
(1.4124 -0.0082253 0)
(1.42016 -0.0136394 0)
(1.4272 -0.0190514 0)
(1.43357 -0.0244778 0)
(1.43932 -0.0299383 0)
(1.44448 -0.0354554 0)
(1.44908 -0.0410533 0)
(1.45316 -0.0467573 0)
(1.45674 -0.0525933 0)
(1.45983 -0.058587 0)
(1.46245 -0.0647628 0)
(1.4646 -0.0711436 0)
(1.46629 -0.0777494 0)
(1.4675 -0.0845965 0)
(1.46822 -0.0916965 0)
(1.46844 -0.0990555 0)
(1.46813 -0.106672 0)
(1.46727 -0.114539 0)
(1.46583 -0.122638 0)
(1.46378 -0.130943 0)
(1.46111 -0.139421 0)
(1.45778 -0.148028 0)
(1.45379 -0.156713 0)
(1.0004 0.00316125 0)
(1.00308 0.00956934 0)
(1.00917 0.0158345 0)
(1.01826 0.0217502 0)
(1.03006 0.0271408 0)
(1.04431 0.0318597 0)
(1.0607 0.0357955 0)
(1.07888 0.0388745 0)
(1.09847 0.0410605 0)
(1.11911 0.0423517 0)
(1.14044 0.0427758 0)
(1.16213 0.0423839 0)
(1.18387 0.0412447 0)
(1.20541 0.0394378 0)
(1.2265 0.0370487 0)
(1.24698 0.0341637 0)
(1.26668 0.0308663 0)
(1.2855 0.0272341 0)
(1.30335 0.0233372 0)
(1.32018 0.0192366 0)
(1.33597 0.014984 0)
(1.35069 0.0106214 0)
(1.36436 0.00618187 0)
(1.377 0.00168949 0)
(1.38864 -0.00283939 0)
(1.39932 -0.00739556 0)
(1.40909 -0.011976 0)
(1.41798 -0.0165833 0)
(1.42605 -0.0212244 0)
(1.43335 -0.0259101 0)
(1.43992 -0.0306546 0)
(1.4458 -0.0354743 0)
(1.45103 -0.0403876 0)
(1.45565 -0.045414 0)
(1.45969 -0.050574 0)
(1.46317 -0.0558879 0)
(1.46612 -0.0613755 0)
(1.46855 -0.0670556 0)
(1.47047 -0.072945 0)
(1.47188 -0.079058 0)
(1.47278 -0.0854054 0)
(1.47316 -0.0919938 0)
(1.47302 -0.0988248 0)
(1.47233 -0.105894 0)
(1.47108 -0.113191 0)
(1.46925 -0.120698 0)
(1.46681 -0.128389 0)
(1.46376 -0.136233 0)
(1.46008 -0.144191 0)
(1.45575 -0.152217 0)
(1.00039 0.00166224 0)
(1.00299 0.00504906 0)
(1.0089 0.008362 0)
(1.01776 0.0114776 0)
(1.02928 0.0142901 0)
(1.04324 0.0167105 0)
(1.05935 0.0186695 0)
(1.07728 0.0201201 0)
(1.09668 0.0210369 0)
(1.11719 0.021415 0)
(1.13846 0.0212668 0)
(1.16017 0.020619 0)
(1.18201 0.019509 0)
(1.20372 0.0179811 0)
(1.22505 0.0160834 0)
(1.24582 0.0138646 0)
(1.26585 0.0113722 0)
(1.28504 0.00865028 0)
(1.30327 0.0057385 0)
(1.32049 0.00267114 0)
(1.33665 -0.000523197 0)
(1.35175 -0.00382174 0)
(1.36577 -0.00720735 0)
(1.37873 -0.0106683 0)
(1.39067 -0.0141977 0)
(1.40161 -0.0177931 0)
(1.41159 -0.0214562 0)
(1.42066 -0.0251919 0)
(1.42886 -0.029008 0)
(1.43624 -0.0329148 0)
(1.44285 -0.0369247 0)
(1.44873 -0.0410513 0)
(1.45391 -0.0453094 0)
(1.45844 -0.0497146 0)
(1.46235 -0.0542824 0)
(1.46566 -0.0590282 0)
(1.46839 -0.0639666 0)
(1.47057 -0.0691109 0)
(1.47221 -0.0744724 0)
(1.47331 -0.0800603 0)
(1.47387 -0.0858804 0)
(1.4739 -0.0919348 0)
(1.47338 -0.0982212 0)
(1.47231 -0.104732 0)
(1.47067 -0.111456 0)
(1.46846 -0.118373 0)
(1.46565 -0.125459 0)
(1.46223 -0.132684 0)
(1.4582 -0.140011 0)
(1.45354 -0.147401 0)
(1.00038 0.000199107 0)
(1.00294 0.000630379 0)
(1.00876 0.0010457 0)
(1.01749 0.00140074 0)
(1.02887 0.00165734 0)
(1.04267 0.00178294 0)
(1.05862 0.0017516 0)
(1.07641 0.00154477 0)
(1.09568 0.00115113 0)
(1.1161 0.000566088 0)
(1.13732 -0.000209143 0)
(1.159 -0.00116868 0)
(1.18085 -0.00230321 0)
(1.2026 -0.00360119 0)
(1.224 -0.00504999 0)
(1.24486 -0.00663687 0)
(1.265 -0.00834979 0)
(1.2843 -0.010178 0)
(1.30266 -0.0121125 0)
(1.32 -0.0141463 0)
(1.33628 -0.0162746 0)
(1.35148 -0.0184948 0)
(1.36559 -0.0208064 0)
(1.37863 -0.0232111 0)
(1.39061 -0.0257124 0)
(1.40157 -0.0283155 0)
(1.41155 -0.0310271 0)
(1.42059 -0.0338555 0)
(1.42873 -0.0368099 0)
(1.43603 -0.0399005 0)
(1.44252 -0.0431382 0)
(1.44824 -0.0465343 0)
(1.45325 -0.0501007 0)
(1.45757 -0.0538488 0)
(1.46124 -0.05779 0)
(1.46429 -0.0619349 0)
(1.46674 -0.0662933 0)
(1.46861 -0.0708734 0)
(1.46991 -0.0756818 0)
(1.47066 -0.0807226 0)
(1.47086 -0.0859972 0)
(1.47051 -0.0915037 0)
(1.46961 -0.0972364 0)
(1.46815 -0.103185 0)
(1.46612 -0.109336 0)
(1.46352 -0.11567 0)
(1.46034 -0.122162 0)
(1.45657 -0.128783 0)
(1.4522 -0.1355 0)
(1.44723 -0.142276 0)
(1.00038 -0.00125058 0)
(1.00293 -0.00374986 0)
(1.00874 -0.00621068 0)
(1.01746 -0.00859957 0)
(1.02882 -0.0108878 0)
(1.04259 -0.0130518 0)
(1.05852 -0.0150738 0)
(1.07627 -0.0169433 0)
(1.0955 -0.0186565 0)
(1.11586 -0.0202165 0)
(1.13702 -0.0216319 0)
(1.15864 -0.0229167 0)
(1.18042 -0.0240883 0)
(1.20209 -0.0251671 0)
(1.2234 -0.0261752 0)
(1.24416 -0.0271356 0)
(1.26419 -0.0280713 0)
(1.28338 -0.0290049 0)
(1.3016 -0.0299579 0)
(1.31881 -0.0309511 0)
(1.33494 -0.0320035 0)
(1.34998 -0.0331329 0)
(1.36392 -0.0343561 0)
(1.37677 -0.0356881 0)
(1.38855 -0.0371433 0)
(1.39931 -0.0387347 0)
(1.40906 -0.0404746 0)
(1.41786 -0.0423746 0)
(1.42576 -0.0444455 0)
(1.43278 -0.0466977 0)
(1.43899 -0.049141 0)
(1.44442 -0.0517846 0)
(1.44912 -0.0546372 0)
(1.45312 -0.0577068 0)
(1.45645 -0.0610007 0)
(1.45915 -0.0645252 0)
(1.46123 -0.0682855 0)
(1.46273 -0.0722851 0)
(1.46365 -0.0765261 0)
(1.464 -0.0810081 0)
(1.4638 -0.0857285 0)
(1.46305 -0.0906817 0)
(1.46175 -0.0958591 0)
(1.45989 -0.101248 0)
(1.45748 -0.106833 0)