/*--------------------------------*- C++ -*----------------------------------*\
| =========                 |                                                 |
| \\      /  F ield         | OpenFOAM: The Open Source CFD Toolbox           |
|  \\    /   O peration     | Version:  2306                                  |
|   \\  /    A nd           | Website:  www.openfoam.com                      |
|    \\/     M anipulation  |                                                 |
\*---------------------------------------------------------------------------*/
FoamFile
{
    version     2.0;
    format      ascii;
    arch        "LSB;label=32;scalar=64";
    class       volScalarField;
    location    "1.07";
    object      p;
}
// * * * * * * * * * * * * * * * * * * * * * * * * * * * * * * * * * * * * * //

dimensions      [0 2 -2 0 0 0 0];

internalField   nonuniform List<scalar> 
47500
(
14.2635
8.31615
5.39826
4.19501
3.55686
3.16765
2.91729
2.74429
2.61605
2.51596
2.43484
2.36708
2.30909
2.25841
2.21332
2.17256
2.13519
2.1005
2.06794
2.03706
2.00752
1.97903
1.95138
1.92437
1.89784
1.87168
1.84576
1.82
1.79432
1.76866
1.74296
1.71718
1.69127
1.66522
1.639
1.61261
1.58605
1.55935
1.53257
1.50579
1.47918
1.45299
1.4276
1.40363
1.38186
1.36299
1.34745
1.33358
1.2884
1.04327
9.4951
7.11982
5.49164
4.53465
3.89691
3.45612
3.14913
2.92821
2.76269
2.63422
2.53142
2.44688
2.37567
2.31444
2.26077
2.21296
2.16973
2.13011
2.09335
2.05888
2.02624
1.99506
1.96504
1.93595
1.90758
1.87977
1.85237
1.82526
1.79835
1.77154
1.74477
1.71796
1.69106
1.66403
1.63682
1.60939
1.58173
1.55379
1.52558
1.49707
1.46826
1.43912
1.40957
1.37941
1.34802
1.31384
1.27371
1.22199
1.13977
0.970458
6.67605
5.93526
5.12719
4.46305
3.94451
3.54966
3.25202
3.0253
2.84921
2.70953
2.59635
2.50271
2.4237
2.35581
2.29649
2.24386
2.19649
2.1533
2.11346
2.0763
2.04131
2.00806
1.97622
1.9455
1.91567
1.88654
1.85795
1.82976
1.80184
1.7741
1.74644
1.71879
1.69107
1.66321
1.63516
1.60685
1.57823
1.54922
1.51976
1.48975
1.45905
1.42746
1.39464
1.36001
1.3225
1.28018
1.22988
1.16696
1.08269
0.962347
5.2343
5.05262
4.64951
4.21692
3.83682
3.5209
3.26391
3.05618
2.88762
2.74954
2.635
2.53865
2.45644
2.38527
2.3228
2.26724
2.2172
2.1716
2.12958
2.09048
2.05373
2.01891
1.98565
1.95365
1.92266
1.89247
1.86291
1.83382
1.80507
1.77654
1.74814
1.71977
1.69135
1.66279
1.63402
1.60496
1.57551
1.5456
1.51509
1.48385
1.45168
1.41828
1.38325
1.34596
1.30544
1.26022
1.20829
1.14712
1.07328
0.983893
4.39924
4.41397
4.22388
3.95436
3.68729
3.4449
3.23306
3.05191
2.89834
2.76815
2.65725
2.56205
2.47954
2.4073
2.34336
2.28615
2.23442
2.18716
2.14357
2.10298
2.06486
2.02877
1.99433
1.96124
1.92926
1.89815
1.86773
1.83785
1.80835
1.77913
1.75006
1.72104
1.69199
1.6628
1.63338
1.60365
1.5735
1.54281
1.51145
1.47924
1.44597
1.41133
1.37495
1.33627
1.29457
1.24893
1.19829
1.14171
1.07851
1.00975
3.87568
3.95337
3.87488
3.71211
3.52865
3.34702
3.17725
3.02415
2.88872
2.76991
2.66586
2.57454
2.494
2.42249
2.3585
2.30078
2.24826
2.20007
2.15547
2.11386
2.07473
2.03766
2.00229
1.96833
1.93551
1.90363
1.87248
1.84191
1.81177
1.78193
1.75227
1.72269
1.69308
1.66335
1.63339
1.60311
1.57238
1.5411
1.50911
1.47624
1.44228
1.40698
1.37
1.33096
1.28939
1.24481
1.19683
1.14539
1.09106
1.03588
3.53078
3.61952
3.59618
3.49995
3.37559
3.24159
3.10811
2.98149
2.86479
2.7589
2.66355
2.57793
2.50097
2.43159
2.36874
2.31148
2.25896
2.21048
2.1654
2.1232
2.08341
2.04566
2.0096
1.97496
1.94149
1.90897
1.87722
1.84607
1.81539
1.78502
1.75487
1.72481
1.69475
1.66457
1.63418
1.60348
1.57234
1.54065
1.50827
1.47505
1.44081
1.40534
1.36841
1.32977
1.2892
1.24652
1.20176
1.15529
1.10808
1.06204
3.29067
3.37292
3.3757
3.32011
3.23646
3.13838
3.03455
2.93122
2.83218
2.73932
2.65338
2.57441
2.50206
2.43578
2.37492
2.31887
2.267
2.21877
2.17366
2.13124
2.09111
2.05293
2.01641
1.98128
1.9473
1.91429
1.88205
1.85043
1.8193
1.78851
1.75794
1.7275
1.69707
1.66656
1.63585
1.60485
1.57346
1.54156
1.50902
1.47573
1.44154
1.4063
1.36988
1.33216
1.29307
1.25265
1.21115
1.16911
1.12751
1.08789
3.11482
3.18637
3.20095
3.17006
3.11405
3.04248
2.96209
2.87838
2.79508
2.71451
2.63795
2.56598
2.49876
2.43617
2.3779
2.3236
2.27287
2.22531
2.18055
2.13823
2.09803
2.05966
2.02286
1.98739
1.95306
1.91967
1.88706
1.85507
1.82357
1.79244
1.76156
1.73082
1.70012
1.66936
1.63845
1.60729
1.57579
1.54384
1.51135
1.47822
1.44434
1.40964
1.37404
1.33753
1.30015
1.26206
1.22361
1.18536
1.14817
1.11323
2.98095
3.04207
3.06141
3.04549
3.00818
2.95592
2.89375
2.82613
2.75644
2.68699
2.61929
2.55424
2.49233
2.43373
2.37842
2.32625
2.27702
2.23047
2.18634
2.14438
2.10433
2.06596
2.02906
1.99342
1.95885
1.9252
1.89231
1.86005
1.82828
1.79688
1.76576
1.73481
1.70392
1.67302
1.64201
1.6108
1.57932
1.54747
1.51519
1.4824
1.44904
1.41508
1.3805
1.34534
1.30973
1.27388
1.23816
1.2031
1.16941
1.13798
2.87613
2.92825
2.94894
2.9421
2.91743
2.8792
2.83103
2.77641
2.71821
2.65855
2.59896
2.5405
2.48382
2.4293
2.37712
2.32732
2.27983
2.23453
2.19127
2.14988
2.11017
2.07197
2.03511
1.99941
1.96473
1.93092
1.89785
1.86539
1.83343
1.80185
1.77056
1.73947
1.70849
1.67752
1.6465
1.61535
1.584
1.55238
1.52044
1.48813
1.45542
1.42231
1.38884
1.35509
1.32121
1.28744
1.25412
1.22173
1.19084
1.16212
2.79236
2.83705
2.85745
2.85611
2.84003
2.81199
2.77452
2.7303
2.68166
2.63046
2.57814
2.52575
2.47406
2.42356
2.37457
2.32724
2.28164
2.23777
2.19554
2.15488
2.11566
2.07777
2.04107
2.00543
1.97074
1.93686
1.90368
1.87111
1.83902
1.80733
1.77595
1.7448
1.71378
1.68283
1.65189
1.62088
1.58974
1.55844
1.52693
1.4952
1.46323
1.43105
1.39872
1.36635
1.3341
1.30221
1.27099
1.24084
1.21221
1.18562
2.72441
2.76303
2.78245
2.78441
2.77419
2.75356
2.72428
2.68833
2.64758
2.60359
2.55764
2.51076
2.46371
2.41706
2.37119
2.32636
2.28273
2.24038
2.1993
2.15949
2.12088
2.0834
2.04697
2.01149
1.97686
1.943
1.9098
1.87717
1.84503
1.8133
1.78189
1.75073
1.71975
1.68888
1.65808
1.62727
1.59643
1.56552
1.53452
1.50341
1.47222
1.44099
1.40979
1.37873
1.34799
1.31778
1.28837
1.26011
1.23334
1.20846
2.66873
2.70242
2.72056
2.7245
2.71829
2.70309
2.68005
2.65066
2.61637
2.57847
2.53806
2.49609
2.45328
2.41022
2.36735
2.32497
2.28332
2.24253
2.20267
2.16379
2.12587
2.0889
2.05282
2.01757
1.98309
1.94931
1.91615
1.88354
1.85141
1.81968
1.7883
1.75719
1.7263
1.69558
1.66497
1.63443
1.60394
1.57346
1.543
1.51256
1.48216
1.45186
1.42175
1.39192
1.36255
1.33383
1.30599
1.27931
1.25408
1.23059
2.62281
2.65246
2.66929
2.67436
2.67093
2.65971
2.64145
2.61725
2.58824
2.55543
2.51979
2.48213
2.44314
2.40339
2.36332
2.3233
2.28358
2.24435
2.20574
2.16784
2.13067
2.09426
2.05859
2.02364
1.98937
1.95574
1.92268
1.89014
1.85807
1.82641
1.7951
1.7641
1.73335
1.70281
1.67244
1.64221
1.6121
1.5821
1.55221
1.52243
1.49282
1.46343
1.43433
1.40564
1.37751
1.3501
1.32362
1.29829
1.27434
1.25199
2.58481
2.61116
2.62673
2.63243
2.63091
2.62263
2.60805
2.58796
2.56323
2.53467
2.50308
2.46918
2.43357
2.39681
2.35934
2.32153
2.28366
2.24595
2.20858
2.17166
2.13528
2.09947
2.06427
2.02967
1.99566
1.96221
1.9293
1.89689
1.86493
1.83337
1.80219
1.77133
1.74077
1.71045
1.68036
1.65047
1.62078
1.59126
1.56194
1.53283
1.50398
1.47545
1.4473
1.41966
1.39264
1.36639
1.34108
1.31689
1.29402
1.27262
2.55337
2.57701
2.59144
2.59743
2.59726
2.59115
2.5794
2.56256
2.54129
2.51626
2.48809
2.45742
2.42478
2.39069
2.35557
2.31979
2.28365
2.2474
2.21123
2.17529
2.13969
2.10451
2.0698
2.03558
2.00187
1.96866
1.93595
1.90369
1.87188
1.84048
1.80946
1.77879
1.74844
1.71838
1.6886
1.65907
1.6298
1.60078
1.57203
1.54358
1.51545
1.48773
1.46047
1.43376
1.40774
1.38251
1.35821
1.33501
1.31304
1.29245
2.52747
2.54887
2.56229
2.5684
2.56915
2.56466
2.55508
2.54081
2.52235
2.5002
2.47491
2.44698
2.41692
2.38517
2.35215
2.31821
2.28366
2.24877
2.21373
2.17874
2.14391
2.10935
2.07515
2.04133
2.00795
1.97501
1.94251
1.91046
1.87883
1.84762
1.81679
1.78634
1.75623
1.72646
1.697
1.66786
1.63902
1.6105
1.58231
1.55448
1.52705
1.50008
1.47363
1.44779
1.42265
1.39831
1.37491
1.35255
1.33136
1.31143
2.5063
2.52588
2.53842
2.54453
2.54593
2.54265
2.53474
2.52249
2.50627
2.48648
2.46356
2.43794
2.41007
2.38035
2.34917
2.31687
2.28375
2.25009
2.21611
2.182
2.14791
2.11396
2.08025
2.04685
2.01381
1.98116
1.94891
1.91709
1.88568
1.85468
1.82408
1.79386
1.76403
1.73456
1.70545
1.67669
1.64829
1.62027
1.59262
1.5654
1.53862
1.51235
1.48665
1.46158
1.43723
1.41369
1.39106
1.36943
1.3489
1.32955
2.48925
2.50736
2.51916
2.52521
2.52706
2.52467
2.51804
2.50737
2.49293
2.47504
2.45406
2.43036
2.40432
2.37632
2.34672
2.31583
2.28398
2.25142
2.21839
2.18509
2.15168
2.11831
2.08508
2.05209
2.0194
1.98704
1.95507
1.92349
1.89231
1.86155
1.8312
1.80125
1.77171
1.74256
1.71381
1.68545
1.65749
1.62994
1.60283
1.57618
1.55002
1.52441
1.49938
1.47502
1.45138
1.42854
1.40659
1.38559
1.36563
1.34677
2.47587
2.4928
2.50399
2.50996
2.51211
2.51038
2.50472
2.49526
2.48221
2.46582
2.44639
2.42424
2.3997
2.37313
2.34484
2.31516
2.28438
2.25277
2.22057
2.18799
2.15521
2.12236
2.08959
2.05699
2.02464
1.99259
1.96089
1.92957
1.89866
1.86815
1.83807
1.80841
1.77917
1.75035
1.72196
1.694
1.66648
1.63941
1.61281
1.5867
1.56113
1.53612
1.51172
1.48799
1.46499
1.44278
1.42142
1.40097
1.38151
1.36307
2.46578
2.48181
2.49251
2.49839
2.50074
2.49949
2.49454
2.48599
2.474
2.45876
2.44054
2.4196
2.39625
2.37081
2.34359
2.31489
2.285
2.25418
2.22269
2.19072
2.15847
2.1261
2.09375
2.06151
2.02948
1.99773
1.96632
1.93527
1.90462
1.87439
1.84459
1.81522
1.7863
1.75783
1.72981
1.70225
1.67516
1.64856
1.62245
1.59686
1.57183
1.54738
1.52356
1.50041
1.47798
1.45633
1.43549
1.41553
1.3965
1.37842
2.45872
2.47408
2.48443
2.49022
2.49271
2.49178
2.48734
2.47944
2.46821
2.45381
2.43647
2.41643
2.39398
2.3694
2.34299
2.31504
2.28585
2.25566
2.22473
2.19327
2.16148
2.12951
2.09752
2.06561
2.03389
2.00243
1.97129
1.94051
1.91014
1.88019
1.85068
1.82163
1.79304
1.76492
1.73727
1.71011
1.68345
1.65729
1.63165
1.60656
1.58204
1.55812
1.53483
1.51221
1.4903
1.46914
1.44877
1.42924
1.41058
1.39281
2.45449
2.46942
2.47952
2.48525
2.48781
2.4871
2.48298
2.4755
2.46477
2.45093
2.43418
2.41475
2.3929
2.3689
2.34306
2.31565
2.28695
2.25722
2.22671
2.19564
2.1642
2.13257
2.10088
2.06926
2.03782
2.00663
1.97576
1.94525
1.91516
1.88549
1.85629
1.82755
1.7993
1.77153
1.74426
1.7175
1.69125
1.66553
1.64035
1.61573
1.59169
1.56826
1.54546
1.52332
1.50188
1.48117
1.46121
1.44206
1.42373
1.40624
2.45299
2.46768
2.47765
2.48335
2.48594
2.48532
2.48137
2.4741
2.46363
2.45007
2.43363
2.41453
2.393
2.36934
2.34382
2.31672
2.28832
2.25888
2.22864
2.19783
2.16665
2.13526
2.10382
2.07244
2.04124
2.0103
1.97969
1.94945
1.91963
1.89026
1.86136
1.83294
1.80503
1.77762
1.75073
1.72436
1.69852
1.67322
1.64848
1.62431
1.60073
1.57775
1.5554
1.5337
1.51269
1.49238
1.4728
1.45398
1.43594
1.41869
2.45413
2.4688
2.47875
2.48444
2.48703
2.48641
2.48246
2.47521
2.46476
2.45123
2.43483
2.41577
2.39431
2.37071
2.34526
2.31825
2.28995
2.26062
2.23051
2.19984
2.16881
2.13758
2.10632
2.07514
2.04415
2.01343
1.98305
1.95307
1.92352
1.89444
1.86585
1.83776
1.81019
1.78314
1.75662
1.73064
1.7052
1.68032
1.656
1.63225
1.6091
1.58654
1.56461
1.54332
1.52269
1.50275
1.48351
1.46498
1.4472
1.43016
2.45792
2.47277
2.48282
2.48853
2.49107
2.49036
2.48626
2.47882
2.46816
2.45441
2.43777
2.41848
2.3968
2.37301
2.3474
2.32025
2.29185
2.26246
2.23233
2.20166
2.17067
2.13953
2.10838
2.07734
2.04652
2.016
1.98584
1.95611
1.92683
1.89803
1.86975
1.84198
1.81475
1.78805
1.76191
1.73631
1.71126
1.68678
1.66286
1.63952
1.61677
1.59462
1.57307
1.55216
1.53188
1.51227
1.49333
1.47507
1.45751
1.44066
2.46441
2.47965
2.48992
2.49566
2.49812
2.4972
2.4928
2.48497
2.47385
2.4596
2.44245
2.42265
2.40048
2.37623
2.35021
2.32271
2.29401
2.26439
2.23407
2.2033
2.17225
2.1411
2.10999
2.07904
2.04835
2.018
1.98805
1.95855
1.92953
1.90102
1.87303
1.84559
1.8187
1.79236
1.76657
1.74135
1.71668
1.69259
1.66906
1.6461
1.62373
1.60195
1.58077
1.5602
1.54025
1.52093
1.50226
1.48424
1.46689
1.4502
2.47372
2.48958
2.50017
2.50598
2.5083
2.50705
2.50216
2.49371
2.48187
2.46685
2.44889
2.42829
2.40534
2.38037
2.35369
2.32561
2.29642
2.26638
2.23574
2.20473
2.17352
2.14228
2.11116
2.08025
2.04965
2.01945
1.98968
1.9604
1.93163
1.90339
1.87571
1.84859
1.82203
1.79604
1.77061
1.74575
1.72146
1.69773
1.67457
1.65198
1.62997
1.60853
1.58769
1.56743
1.54778
1.52874
1.51031
1.4925
1.47533
1.45878
2.48602
2.50274
2.51378
2.51966
2.52177
2.52006
2.51447
2.50514
2.49229
2.47618
2.4571
2.43538
2.41137
2.3854
2.35781
2.32892
2.29904
2.26843
2.23733
2.20595
2.17449
2.14309
2.11188
2.08097
2.05044
2.02034
1.99074
1.96167
1.93314
1.90518
1.87779
1.85098
1.82475
1.7991
1.77402
1.74952
1.72558
1.70221
1.6794
1.65716
1.63548
1.61437
1.59383
1.57387
1.55449
1.53569
1.51748
1.49987
1.48285
1.46643
2.50158
2.51943
2.53105
2.537
2.53879
2.53643
2.52989
2.51938
2.5052
2.48765
2.4671
2.44394
2.41854
2.39128
2.36253
2.33262
2.30185
2.27049
2.23879
2.20695
2.17514
2.14351
2.11217
2.08121
2.05071
2.02071
1.99126
1.96238
1.93408
1.90639
1.87929
1.85279
1.82688
1.80156
1.77682
1.75266
1.72906
1.70603
1.68356
1.66164
1.64028
1.61947
1.59922
1.57952
1.56039
1.54181
1.5238
1.50635
1.48947
1.47316
2.52076
2.54002
2.55235
2.55834
2.55969
2.55644
2.54864
2.5366
2.52068
2.50131
2.47891
2.45393
2.42682
2.39798
2.3678
2.33664
2.3048
2.27255
2.24012
2.20771
2.17548
2.14355
2.11203
2.08099
2.05048
2.02056
1.99124
1.96255
1.93448
1.90704
1.88022
1.85402
1.82843
1.80343
1.77902
1.75519
1.73192
1.70921
1.68705
1.66544
1.64437
1.62385
1.60386
1.5844
1.56549
1.54711
1.52927
1.51198
1.49522
1.479
2.54399
2.56503
2.57821
2.58418
2.58488
2.58043
2.57099
2.55697
2.53887
2.51721
2.49253
2.46534
2.43616
2.40543
2.37356
2.34092
2.30783
2.27453
2.24127
2.2082
2.17547
2.1432
2.11145
2.0803
2.04978
2.01992
1.99073
1.96221
1.93436
1.90717
1.88063
1.85472
1.82943
1.80475
1.78065
1.75713
1.73418
1.71177
1.68991
1.66858
1.64779
1.62751
1.60776
1.58853
1.56982
1.55162
1.53394
1.51677
1.50012
1.48398
2.5719
2.59512
2.60928
2.61513
2.61489
2.60884
2.59726
2.58071
2.55987
2.5354
2.50794
2.47811
2.44647
2.41352
2.3797
2.34538
2.31086
2.2764
2.24218
2.20838
2.17511
2.14245
2.11046
2.07918
2.04863
2.01882
1.98974
1.96139
1.93375
1.90681
1.88053
1.85491
1.82991
1.80553
1.78173
1.75851
1.73585
1.71373
1.69215
1.67108
1.65054
1.6305
1.61097
1.59193
1.5734
1.55536
1.53781
1.52075
1.50419
1.48811
2.60525
2.63114
2.64642
2.65195
2.65038
2.64217
2.62779
2.60805
2.5838
2.55589
2.5251
2.49214
2.45765
2.42216
2.38612
2.3499
2.31381
2.27805
2.24281
2.20822
2.17436
2.14128
2.10903
2.07761
2.04703
2.01726
1.9883
1.96012
1.93269
1.90598
1.87996
1.85461
1.8299
1.80581
1.7823
1.75936
1.73697
1.71512
1.69379
1.67297
1.65265
1.63283
1.61349
1.59463
1.57625
1.55835
1.54092
1.52396
1.50747
1.49145
2.64507
2.67422
2.69073
2.69563
2.69215
2.68102
2.66301
2.63921
2.61074
2.57866
2.54391
2.50729
2.46952
2.43115
2.39264
2.35435
2.31654
2.2794
2.24308
2.20766
2.17318
2.13969
2.10717
2.07561
2.04499
2.01528
1.98643
1.95842
1.93119
1.90472
1.87896
1.85387
1.82943
1.80561
1.78237
1.7597
1.73757
1.71596
1.69487
1.67427
1.65416
1.63452
1.61536
1.59666
1.57842
1.56063
1.5433
1.52643
1.51
1.49401
2.69271
2.72585
2.74365
2.74741
2.74117
2.72609
2.70333
2.67439
2.64073
2.60362
2.56419
2.52336
2.48186
2.44029
2.39908
2.35855
2.31892
2.28033
2.24289
2.20662
2.17154
2.13763
2.10485
2.07317
2.04253
2.01288
1.98415
1.95631
1.92929
1.90305
1.87753
1.8527
1.82852
1.80496
1.78198
1.75955
1.73766
1.71629
1.69541
1.67501
1.65508
1.63562
1.61661
1.59804
1.57992
1.56224
1.54499
1.52818
1.51179
1.49584
2.74998
2.78803
2.80708
2.80887
2.79863
2.77815
2.74919
2.71376
2.67369
2.63058
2.58568
2.54002
2.49437
2.44928
2.40516
2.36226
2.32075
2.28069
2.24213
2.20503
2.16936
2.13506
2.10206
2.07028
2.03964
2.01006
1.98147
1.95381
1.927
1.90098
1.87571
1.85113
1.82721
1.80389
1.78115
1.75896
1.73729
1.71612
1.69543
1.67522
1.65546
1.63614
1.61726
1.59882
1.58079
1.56319
1.54601
1.52925
1.5129
1.49696
2.8194
2.86348
2.88351
2.882
2.86591
2.83806
2.80097
2.75732
2.70943
2.65917
2.60796
2.55686
2.50663
2.45776
2.41058
2.36524
2.32181
2.2803
2.24065
2.20277
2.16657
2.13193
2.09874
2.0669
2.03629
2.00682
1.97839
1.95092
1.92432
1.89855
1.87352
1.84918
1.82549
1.80241
1.7799
1.75792
1.73646
1.71548
1.69497
1.67492
1.6553
1.63612
1.61736
1.59901
1.58107
1.56354
1.54641
1.52968
1.51335
1.49742
2.9045
2.95599
2.97628
2.96929
2.94465
2.90664
2.85889
2.8049
2.7475
2.68882
2.6304
2.57327
2.51809
2.46525
2.41491
2.36713
2.32184
2.27894
2.23828
2.19971
2.16305
2.12815
2.09485
2.063
2.03247
2.00314
1.97489
1.94763
1.92127
1.89573
1.87095
1.84686
1.8234
1.80055
1.77825
1.75648
1.7352
1.7144
1.69405
1.67414
1.65465
1.63558
1.61691
1.59865
1.58078
1.5633
1.54621
1.5295
1.51319
1.49725
3.01049
3.07095
3.0899
3.07385
3.03659
2.9846
2.9229
2.85594
2.78709
2.71866
2.65215
2.58847
2.52807
2.47115
2.41768
2.36754
2.32051
2.27635
2.23483
2.19569
2.1587
2.12364
2.09031
2.05853
2.02813
1.99899
1.97096
1.94394
1.91783
1.89255
1.86801
1.84416
1.82095
1.79831
1.77622
1.75464
1.73354
1.7129
1.69269
1.67291
1.65353
1.63455
1.61597
1.59777
1.57995
1.56251
1.54544
1.52875
1.51243
1.49649
3.14535
3.21625
3.23044
3.19944
3.14352
3.07225
2.99237
2.90935
2.82692
2.74738
2.67201
2.60139
2.53567
2.47474
2.4183
2.36599
2.31744
2.27225
2.23006
2.19053
2.15336
2.11827
2.08502
2.0534
2.02322
1.99433
1.96657
1.93982
1.91399
1.88898
1.8647
1.8411
1.81812
1.7957
1.77381
1.75241
1.73148
1.71098
1.69091
1.67124
1.65196
1.63307
1.61455
1.5964
1.57862
1.56121
1.54415
1.52746
1.51113
1.49517
3.32201
3.4036
3.40603
3.35036
3.26683
3.16909
3.06578
2.96316
2.86498
2.77313
2.68836
2.61071
2.53981
2.47514
2.41606
2.36195
2.3122
2.26628
2.22369
2.18401
2.14686
2.11191
2.07889
2.04754
2.01767
1.9891
1.96167
1.93524
1.90972
1.88501
1.86101
1.83767
1.81493
1.79273
1.77104
1.74982
1.72904
1.70868
1.68873
1.66916
1.64997
1.63115
1.61268
1.59457
1.57682
1.55942
1.54237
1.52567
1.50932
1.49333
3.56273
3.65084
3.62718
3.5309
3.4067
3.27305
3.14009
3.01416
2.8983
2.79337
2.69914
2.61476
2.53919
2.47135
2.4102
2.35481
2.30434
2.2581
2.21546
2.17592
2.13903
2.10443
2.0718
2.04086
2.01141
1.98325
1.95621
1.93017
1.905
1.88061
1.85692
1.83386
1.81136
1.78939
1.7679
1.74686
1.72623
1.70601
1.68617
1.6667
1.64758
1.62881
1.61039
1.59232
1.57458
1.55718
1.54012
1.5234
1.50703
1.491
3.90804
3.98516
3.90638
3.74359
3.5603
3.37902
3.20974
3.05728
2.92263
2.80471
2.7017
2.61154
2.5323
2.46224
2.39987
2.34392
2.29336
2.24732
2.20507
2.16603
2.1297
2.09568
2.06363
2.03327
2.00436
1.97672
1.95016
1.92456
1.8998
1.87578
1.85242
1.82966
1.80743
1.78569
1.76441
1.74354
1.72307
1.70298
1.68325
1.66386
1.64481
1.6261
1.60771
1.58965
1.57192
1.55452
1.53744
1.5207
1.50429
1.48822
4.43182
4.44603
4.2557
3.98618
3.71928
3.47719
3.26579
3.08521
2.93232
2.80294
2.69297
2.59883
2.51753
2.44664
2.3842
2.32867
2.2788
2.23359
2.19224
2.15412
2.11869
2.08552
2.05428
2.02467
1.99646
1.96944
1.94346
1.91838
1.89408
1.87048
1.84749
1.82506
1.80312
1.78163
1.76056
1.73988
1.71957
1.6996
1.67998
1.66067
1.64169
1.62302
1.60466
1.58661
1.56888
1.55146
1.53436
1.51758
1.50113
1.48501
5.26688
5.08479
4.68148
4.2489
3.86892
3.55323
3.2966
3.08933
2.92135
2.78396
2.67024
2.57485
2.49374
2.42382
2.36276
2.30877
2.26048
2.21681
2.17693
2.14017
2.10599
2.07397
2.04377
2.01509
1.98772
1.96145
1.93614
1.91166
1.88789
1.86476
1.84218
1.8201
1.79847
1.77725
1.75641
1.73592
1.71577
1.69593
1.67641
1.65718
1.63826
1.61962
1.60129
1.58325
1.5655
1.54806
1.53093
1.51411
1.49761
1.48144
6.70848
5.96738
5.15914
4.49496
3.97646
3.58175
3.28436
3.05799
2.88237
2.74327
2.63081
2.53802
2.46
2.39326
2.33524
2.28408
2.23834
2.19698
2.15915
2.12421
2.09165
2.06107
2.03213
2.00457
1.97819
1.9528
1.92825
1.90444
1.88126
1.85864
1.83651
1.81482
1.79352
1.77259
1.75199
1.7317
1.71171
1.69201
1.67259
1.65344
1.63457
1.61597
1.59764
1.5796
1.56184
1.54438
1.52721
1.51034
1.49378
1.47754
9.52726
7.15175
5.52336
4.56624
3.92842
3.48765
3.18078
2.96009
2.79491
2.66693
2.56473
2.48093
2.41061
2.3504
2.29793
2.25147
2.20975
2.17181
2.13693
2.10453
2.07417
2.04548
2.0182
1.99208
1.96695
1.94264
1.91904
1.89605
1.87359
1.85159
1.82999
1.80875
1.78784
1.76723
1.7469
1.72684
1.70704
1.68748
1.66817
1.64911
1.63029
1.61172
1.5934
1.57535
1.55757
1.54006
1.52283
1.50591
1.48928
1.47296
14.2955
8.34781
5.4296
4.22604
3.58766
3.19831
2.94792
2.77501
2.64699
2.54725
2.46661
2.39947
2.34224
2.29246
2.24842
2.20887
2.17287
2.13972
2.10886
2.07987
2.05242
2.02623
2.00108
1.97681
1.95326
1.93033
1.90793
1.88596
1.86438
1.84313
1.82219
1.8015
1.78106
1.76085
1.74084
1.72105
1.70146
1.68207
1.66288
1.6439
1.62514
1.60659
1.58828
1.57021
1.55238
1.53482
1.51753
1.50051
1.4838
1.46738
1.01267
1.01222
1.01134
1.01028
1.00922
1.00832
1.00767
1.00734
1.00736
1.00776
1.00856
1.00976
1.01135
1.01332
1.01566
1.01835
1.02137
1.0247
1.02832
1.0322
1.03633
1.04066
1.04519
1.04989
1.05473
1.05969
1.06475
1.06989
1.07508
1.0803
1.08554
1.09078
1.09599
1.10116
1.10628
1.11133
1.11629
1.12115
1.12591
1.13054
1.13504
1.1394
1.14361
1.14765
1.15154
1.15524
1.15877
1.16212
1.16528
1.16825
1.17102
1.1736
1.17597
1.17815
1.18013
1.18191
1.18349
1.18487
1.18605
1.18703
1.18782
1.18842
1.18883
1.18905
1.18909
1.18894
1.18863
1.18814
1.18748
1.18665
1.18567
1.18453
1.18324
1.1818
1.18022
1.1785
1.17665
1.17467
1.17257
1.17035
1.16801
1.16557
1.16302
1.16037
1.15762
1.15478
1.15186
1.14885
1.14576
1.1426
1.13937
1.13608
1.13272
1.1293
1.12582
1.1223
1.11872
1.11511
1.11145
1.10775
1.10401
1.10025
1.09645
1.09263
1.08878
1.08491
1.08102
1.07711
1.07319
1.06925
1.0653
1.06135
1.05738
1.05341
1.04944
1.04546
1.04148
1.0375
1.03352
1.02955
1.02558
1.02161
1.01765
1.0137
1.00975
1.00582
1.00189
0.99797
0.994063
0.990166
0.986282
0.982409
0.97855
0.974703
0.97087
0.96705
0.963245
0.959454
0.955677
0.951915
0.948168
0.944436
0.940719
0.937018
0.933331
0.92966
0.926004
0.922364
0.918738
0.915128
0.911533
0.907953
0.904388
0.900837
0.897302
0.893781
0.890274
0.886781
0.883303
0.879838
0.876388
0.87295
0.869526
0.866116
0.862718
0.859332
0.85596
0.852599
0.849251
0.845914
0.842589
0.839276
0.835973
0.832682
0.829401
0.826131
0.822871
0.819621
0.81638
0.81315
0.809928
0.806716
0.803512
0.800317
0.797131
0.793953
0.790782
0.78762
0.784465
0.781317
0.778177
0.775043
0.771916
0.768796
0.765682
0.762574
0.759472
0.756375
0.753285
0.7502
0.74712
0.744045
0.740975
0.737909
0.734849
0.731792
0.72874
0.725692
0.722648
0.719608
0.716571
0.713538
0.710508
0.707482
0.704458
0.701438
0.69842
0.695405
0.692393
0.689383
0.686376
0.683371
0.680368
0.677367
0.674369
0.671372
0.668377
0.665383
0.662392
0.659401
0.656413
0.653425
0.650439
0.647454
0.64447
0.641488
0.638506
0.635525
0.632546
0.629567
0.626588
0.623611
0.620634
0.617658
0.614682
0.611707
0.608732
0.605758
0.602784
0.59981
0.596837
0.593864
0.590891
0.587918
0.584946
0.581973
0.579001
0.576028
0.573056
0.570084
0.567111
0.564139
0.561166
0.558194
0.555221
0.552248
0.549275
0.546302
0.543329
0.540355
0.537381
0.534407
0.531433
0.528458
0.525484
0.522508
0.519533
0.516557
0.513581
0.510605
0.507628
0.504652
0.501674
0.498697
0.495719
0.492741
0.489762
0.486783
0.483804
0.480824
0.477844
0.474864
0.471883
0.468902
0.46592
0.462939
0.459956
0.456974
0.453991
0.451008
0.448024
0.44504
0.442056
0.439071
0.436086
0.4331
0.430115
0.427129
0.424142
0.421156
0.418169
0.415181
0.412194
0.409206
0.406218
0.403229
0.40024
0.397251
0.394262
0.391272
0.388282
0.385292
0.382301
0.37931
0.376319
0.373328
0.370336
0.367344
0.364352
0.36136
0.358367
0.355374
0.352381
0.349388
0.346395
0.343401
0.340407
0.337413
0.334419
0.331424
0.328429
0.325435
0.322439
0.319444
0.316449
0.313453
0.310458
0.307462
0.304465
0.301469
0.298473
0.295476
0.29248
0.289483
0.286486
0.283489
0.280492
0.277494
0.274497
0.271499
0.268502
0.265504
0.262506
0.259508
0.25651
0.253511
0.250513
0.247515
0.244516
0.241517
0.238519
0.23552
0.232521
0.229522
0.226523
0.223524
0.220524
0.217525
0.214526
0.211526
0.208527
0.205527
0.202528
0.199528
0.196528
0.193529
0.190529
0.187529
0.184529
0.181529
0.178529
0.175529
0.172529
0.169529
0.166529
0.163528
0.160528
0.157528
0.154528
0.151527
0.148527
0.145527
0.142526
0.139526
0.136525
0.133525
0.130524
0.127524
0.124523
0.121523
0.118522
0.115521
0.112521
0.10952
0.10652
0.103519
0.100518
0.0975178
0.0945172
0.0915166
0.088516
0.0855154
0.0825148
0.0795142
0.0765136
0.073513
0.0705124
0.0675118
0.0645113
0.0615107
0.0585102
0.0555097
0.0525092
0.0495087
0.0465082
0.0435077
0.0405073
0.0375068
0.0345064
0.0315059
0.0285055
0.0255051
0.0225046
0.0195042
0.0165037
0.0135032
0.0105027
0.00750218
0.00450159
0.00150074
1.01313
1.01267
1.01198
1.01119
1.01042
1.00978
1.00935
1.00919
1.00935
1.00984
1.01068
1.01187
1.01342
1.01533
1.01757
1.02014
1.02301
1.02618
1.02962
1.03332
1.03724
1.04137
1.04568
1.05016
1.05478
1.05953
1.06437
1.06928
1.07426
1.07927
1.08431
1.08934
1.09437
1.09935
1.1043
1.10917
1.11398
1.11869
1.1233
1.1278
1.13218
1.13642
1.14052
1.14447
1.14826
1.15189
1.15535
1.15863
1.16173
1.16465
1.16738
1.16993
1.17228
1.17444
1.1764
1.17817
1.17975
1.18114
1.18233
1.18333
1.18414
1.18476
1.1852
1.18546
1.18553
1.18543
1.18516
1.18472
1.18411
1.18334
1.18241
1.18133
1.1801
1.17872
1.1772
1.17555
1.17376
1.17185
1.16981
1.16766
1.16539
1.16302
1.16053
1.15795
1.15527
1.15251
1.14965
1.14671
1.14369
1.1406
1.13743
1.1342
1.13091
1.12755
1.12414
1.12068
1.11717
1.11361
1.11001
1.10637
1.10269
1.09898
1.09524
1.09147
1.08767
1.08385
1.08001
1.07615
1.07227
1.06838
1.06448
1.06057
1.05664
1.05271
1.04878
1.04484
1.0409
1.03695
1.03301
1.02907
1.02513
1.0212
1.01727
1.01334
1.00943
1.00551
1.00161
0.997719
0.993835
0.989962
0.986099
0.982248
0.978408
0.97458
0.970766
0.966964
0.963175
0.9594
0.955638
0.951891
0.948157
0.944438
0.940734
0.937044
0.933368
0.929707
0.926061
0.92243
0.918813
0.915211
0.911624
0.908051
0.904492
0.900948
0.897418
0.893902
0.8904
0.886912
0.883438
0.879977
0.87653
0.873095
0.869674
0.866266
0.86287
0.859487
0.856116
0.852757
0.849409
0.846074
0.842749
0.839436
0.836134
0.832843
0.829562
0.826291
0.823031
0.81978
0.816539
0.813307
0.810085
0.806872
0.803667
0.800471
0.797283
0.794103
0.790931
0.787767
0.78461
0.781461
0.778318
0.775183
0.772054
0.768931
0.765815
0.762705
0.759601
0.756503
0.75341
0.750323
0.74724
0.744163
0.741091
0.738023
0.73496
0.731902
0.728847
0.725797
0.722751
0.719708
0.716669
0.713634
0.710602
0.707573
0.704548
0.701525
0.698505
0.695488
0.692474
0.689462
0.686453
0.683446
0.680441
0.677438
0.674437
0.671439
0.668442
0.665446
0.662453
0.659461
0.65647
0.653481
0.650493
0.647507
0.644521
0.641537
0.638554
0.635571
0.63259
0.629609
0.62663
0.623651
0.620672
0.617695
0.614718
0.611741
0.608765
0.60579
0.602814
0.59984
0.596865
0.593891
0.590917
0.587943
0.584969
0.581996
0.579022
0.576049
0.573076
0.570102
0.567129
0.564156
0.561183
0.558209
0.555236
0.552262
0.549288
0.546314
0.54334
0.540366
0.537391
0.534417
0.531442
0.528467
0.525491
0.522516
0.51954
0.516564
0.513587
0.51061
0.507633
0.504656
0.501678
0.4987
0.495722
0.492743
0.489764
0.486785
0.483805
0.480825
0.477845
0.474864
0.471883
0.468902
0.46592
0.462938
0.459956
0.456973
0.45399
0.451006
0.448022
0.445038
0.442054
0.439069
0.436084
0.433098
0.430112
0.427126
0.424139
0.421153
0.418166
0.415178
0.412191
0.409203
0.406214
0.403226
0.400237
0.397248
0.394258
0.391268
0.388278
0.385288
0.382297
0.379306
0.376315
0.373324
0.370332
0.36734
0.364348
0.361356
0.358363
0.355371
0.352377
0.349384
0.346391
0.343397
0.340403
0.337409
0.334415
0.33142
0.328425
0.325431
0.322436
0.31944
0.316445
0.31345
0.310454
0.307458
0.304462
0.301466
0.298469
0.295473
0.292476
0.289479
0.286482
0.283485
0.280488
0.277491
0.274494
0.271496
0.268498
0.265501
0.262503
0.259505
0.256507
0.253509
0.25051
0.247512
0.244513
0.241515
0.238516
0.235517
0.232518
0.229519
0.22652
0.223521
0.220522
0.217523
0.214523
0.211524
0.208525
0.205525
0.202526
0.199526
0.196526
0.193527
0.190527
0.187527
0.184527
0.181527
0.178527
0.175527
0.172527
0.169527
0.166527
0.163527
0.160527
0.157527
0.154526
0.151526
0.148526
0.145525
0.142525
0.139525
0.136524
0.133524
0.130523
0.127523
0.124522
0.121522
0.118521
0.115521
0.11252
0.10952
0.106519
0.103518
0.100518
0.0975173
0.0945167
0.0915161
0.0885155
0.0855149
0.0825143
0.0795138
0.0765132
0.0735126
0.0705121
0.0675115
0.064511
0.0615104
0.0585099
0.0555094
0.0525089
0.0495085
0.046508
0.0435076
0.0405071
0.0375067
0.0345062
0.0315058
0.0285054
0.0255049
0.0225045
0.019504
0.0165036
0.0135031
0.0105025
0.00750199
0.00450143
0.00150068
1.014
1.01336
1.01267
1.01198
1.01134
1.01085
1.01055
1.01051
1.01075
1.01129
1.01216
1.01335
1.01488
1.01673
1.01891
1.02138
1.02415
1.0272
1.03051
1.03405
1.03782
1.04179
1.04594
1.05025
1.0547
1.05927
1.06394
1.06868
1.07349
1.07834
1.08322
1.0881
1.09296
1.09781
1.10261
1.10735
1.11203
1.11662
1.12112
1.12551
1.12979
1.13393
1.13795
1.14182
1.14554
1.1491
1.1525
1.15573
1.15879
1.16167
1.16437
1.16689
1.16922
1.17136
1.17331
1.17508
1.17666
1.17805
1.17925
1.18026
1.18109
1.18173
1.18219
1.18247
1.18258
1.18251
1.18228
1.18187
1.1813
1.18058
1.17969
1.17866
1.17747
1.17615
1.17468
1.17308
1.17134
1.16948
1.1675
1.1654
1.16319
1.16087
1.15845
1.15592
1.1533
1.15059
1.14779
1.1449
1.14194
1.1389
1.13579
1.13261
1.12937
1.12607
1.12271
1.1193
1.11584
1.11233
1.10878
1.10519
1.10156
1.09789
1.09419
1.09047
1.08671
1.08294
1.07914
1.07532
1.07148
1.06763
1.06376
1.05988
1.056
1.0521
1.0482
1.04429
1.04038
1.03647
1.03256
1.02864
1.02473
1.02082
1.01692
1.01302
1.00913
1.00524
1.00136
0.997486
0.993623
0.989769
0.985925
0.982092
0.978269
0.974458
0.970659
0.966872
0.963098
0.959337
0.955588
0.951853
0.948132
0.944424
0.94073
0.93705
0.933385
0.929733
0.926096
0.922472
0.918863
0.915268
0.911688
0.908121
0.904569
0.90103
0.897505
0.893994
0.890497
0.887013
0.883542
0.880085
0.876641
0.87321
0.869791
0.866385
0.862991
0.85961
0.856241
0.852883
0.849537
0.846202
0.842879
0.839566
0.836265
0.832974
0.829693
0.826422
0.823162
0.819911
0.816669
0.813437
0.810214
0.807
0.803794
0.800597
0.797408
0.794227
0.791054
0.787889