/*--------------------------------*- C++ -*----------------------------------*\
| =========                 |                                                 |
| \\      /  F ield         | OpenFOAM: The Open Source CFD Toolbox           |
|  \\    /   O peration     | Version:  2306                                  |
|   \\  /    A nd           | Website:  www.openfoam.com                      |
|    \\/     M anipulation  |                                                 |
\*---------------------------------------------------------------------------*/
FoamFile
{
    version     2.0;
    format      ascii;
    arch        "LSB;label=32;scalar=64";
    class       surfaceScalarField;
    location    "1.45";
    object      phi;
}
// * * * * * * * * * * * * * * * * * * * * * * * * * * * * * * * * * * * * * //

dimensions      [0 3 -1 0 0 0 0];

oriented        oriented;

internalField   nonuniform List<scalar> 
890
(
8.50913e-05
1.49087e-05
7.26699e-05
1.24214e-05
6.71595e-05
5.51044e-06
6.78794e-05
-7.19958e-07
-9.59009e-06
7.74695e-05
0.0001097
5.20867e-06
0.000117543
4.57874e-06
0.000122405
6.48558e-07
0.000126113
-4.42836e-06
-1.13754e-05
0.000127898
0.00011182
-6.61126e-06
0.000124952
-8.5534e-06
0.000133372
-7.77168e-06
0.000137101
-8.15734e-06
-1.04697e-05
0.000136196
0.000109059
-1.56698e-05
0.000115017
-1.4512e-05
0.000116578
-9.33298e-06
0.000114866
-6.44495e-06
-5.61202e-06
0.000110008
8.43302e-05
6.98182e-05
6.04852e-05
5.40403e-05
4.84283e-05
-1.60548e-06
1.60548e-06
-2.47505e-06
8.69569e-07
-1.75146e-06
-7.23589e-07
2.37127e-07
-1.98858e-06
2.90031e-06
-2.66319e-06
5.7306e-06
-2.83029e-06
8.35945e-06
-2.62885e-06
1.05827e-05
-2.22322e-06
1.23271e-05
-1.74446e-06
1.36058e-05
-1.27872e-06
1.44794e-05
-8.73523e-07
1.50274e-05
-5.48054e-07
1.53307e-05
-3.03307e-07
1.5461e-05
-1.30307e-07
1.5477e-05
-1.59202e-08
1.54234e-05
5.35505e-08
1.53328e-05
9.0581e-08
1.52276e-05
1.05264e-07
1.51221e-05
1.0547e-07
1.5025e-05
9.70862e-08
1.49407e-05
8.42817e-08
1.48709e-05
6.98638e-08
1.48152e-05
5.56214e-08
1.47726e-05
4.2605e-08
1.47413e-05
3.1347e-08
1.47193e-05
2.20312e-08
1.47046e-05
1.46187e-08
1.46957e-05
8.94005e-09
1.46909e-05
4.75936e-09
1.46891e-05
1.81822e-09
1.46893e-05
-1.36083e-10
1.46906e-05
-1.33329e-09
1.46926e-05
-1.97528e-09
1.46948e-05
-2.22505e-09
1.4697e-05
-2.21323e-09
1.4699e-05
-2.04116e-09
1.47008e-05
-1.78385e-09
1.47023e-05
-1.49427e-09
1.47035e-05
-1.20803e-09
1.47045e-05
-9.47727e-10
1.47052e-05
-7.26933e-10
1.47058e-05
-5.54047e-10
1.47062e-05
-4.36414e-10
1.47066e-05
-3.89991e-10
-4.41017e-10
-1.91012e-06
3.5156e-06
-1.45042e-06
4.09868e-07
1.66408e-06
-3.83809e-06
6.60143e-06
-6.92593e-06
1.23983e-05
-8.46002e-06
1.824e-05
-8.67205e-06
2.35907e-05
-7.97952e-06
2.81568e-05
-6.78931e-06
3.18309e-05
-5.41858e-06
3.46318e-05
-4.07963e-06
3.66529e-05
-2.89463e-06
3.80232e-05
-1.91832e-06
3.888e-05
-1.16014e-06
3.93524e-05
-6.02702e-07
3.9552e-05
-2.15449e-07
3.95695e-05
3.59577e-08
3.9475e-05
1.85151e-07
3.93198e-05
2.60455e-07
3.91401e-05
2.85138e-07
3.89597e-05
2.77461e-07
3.87931e-05
2.50946e-07
3.86478e-05
2.15171e-07
3.85268e-05
1.76607e-07
3.843e-05
1.3936e-07
3.83556e-05
1.05806e-07
3.83005e-05
7.70925e-08
3.82616e-05
5.35463e-08
3.82356e-05
3.49695e-08
3.82195e-05
2.08616e-08
3.82107e-05
1.0576e-08
3.82071e-05
3.42407e-09
3.82071e-05
-1.24771e-09
3.82091e-05
-4.05133e-09
3.82124e-05
-5.48218e-09
3.82161e-05
-5.95765e-09
3.82199e-05
-5.80864e-09
3.82234e-05
-5.28746e-09
3.82265e-05
-4.57871e-09
3.82291e-05
-3.81182e-09
3.82312e-05
-3.07316e-09
3.82329e-05
-2.41733e-09
3.82342e-05
-1.87732e-09
3.82353e-05
-1.47278e-09
3.82361e-05
-1.21891e-09
-1.14174e-09
5.09979e-09
3.5105e-06
3.86228e-06
-3.44731e-06
1.04089e-05
-1.03847e-05
1.80364e-05
-1.45535e-05
2.56837e-05
-1.61073e-05
3.27457e-05
-1.5734e-05
3.89013e-05
-1.41351e-05
4.40224e-05
-1.19103e-05
4.81086e-05
-9.50484e-06
5.1239e-05
-7.21003e-06
5.35356e-05
-5.19124e-06
5.51383e-05
-3.52096e-06
5.61873e-05
-2.20917e-06
5.68127e-05
-1.22813e-06
5.71281e-05
-5.30803e-07
5.72281e-05
-6.41098e-08
5.71868e-05
2.26494e-07
5.70617e-05
3.85543e-07
5.68947e-05
4.52151e-07
5.67147e-05
4.57478e-07
5.65404e-05
4.25199e-07
5.6383e-05
3.72575e-07
5.6248e-05
3.11645e-07
5.6137e-05
2.50355e-07
5.60492e-05
1.9356e-07
5.59825e-05
1.43869e-07
5.59337e-05
1.02332e-07
5.58997e-05
6.89682e-08
5.58774e-05
4.31666e-08
5.5864e-05
2.39791e-08
5.58571e-05
1.03209e-08
5.58547e-05
1.11644e-09
5.58553e-05
-4.67797e-09
5.58578e-05
-7.90967e-09
5.58611e-05
-9.31697e-09
5.58648e-05
-9.49461e-09
5.58684e-05
-8.90351e-09
5.58717e-05
-7.8873e-09
5.58746e-05
-6.69223e-09
5.5877e-05
-5.48689e-09
5.5879e-05
-4.38058e-09
5.58805e-05
-3.43983e-09
5.58818e-05
-2.70128e-09
5.58827e-05
-2.17944e-09
-1.89817e-09
5.9288e-06
-2.41831e-06
1.55384e-05
-1.30569e-05
2.58963e-05
-2.07426e-05
3.52479e-05
-2.39051e-05
4.31531e-05
-2.40125e-05
4.96171e-05
-2.21981e-05
5.47792e-05
-1.92972e-05
5.88149e-05
-1.59461e-05
6.19023e-05
-1.25922e-05
6.42073e-05
-9.51503e-06
6.58781e-05
-6.86202e-06
6.70437e-05
-4.68657e-06
6.7815e-05
-2.98048e-06
6.82861e-05
-1.6992e-06
6.85356e-05
-7.80374e-07
6.86286e-05
-1.57106e-07
6.86155e-05
2.39638e-07
6.85366e-05
4.64399e-07
6.84224e-05
5.66366e-07
6.82943e-05
5.85546e-07
6.8167e-05
5.52561e-07
6.80494e-05
4.90132e-07
6.79467e-05
4.14416e-07
6.78607e-05
3.36321e-07
6.77915e-05
2.62707e-07
6.7738e-05
1.97438e-07
6.76981e-05
1.42254e-07
6.76696e-05
9.74589e-08
6.76503e-05
6.24544e-08
6.76381e-05
3.6132e-08
6.76313e-05
1.71544e-08
6.76282e-05
4.15455e-09
6.76278e-05
-4.21933e-09
6.7629e-05
-9.08707e-09
6.76311e-05
-1.14125e-08
6.76336e-05
-1.20023e-08
6.76361e-05
-1.14812e-08
6.76386e-05
-1.03198e-08
6.76407e-05
-8.8597e-09
6.76426e-05
-7.33773e-09
6.76441e-05
-5.90982e-09
6.76454e-05
-4.67168e-09
6.76463e-05
-3.67591e-09
6.76471e-05
-2.94073e-09
-2.48739e-09
2.23063e-05
-2.47246e-05
3.92439e-05
-2.99945e-05
5.06961e-05
-3.21948e-05
5.86463e-05
-3.18553e-05
6.40585e-05
-2.94247e-05
6.76558e-05
-2.57954e-05
7.0006e-05
-2.16474e-05
7.152e-05
-1.74601e-05
7.24849e-05
-1.35571e-05
7.30954e-05
-1.01255e-05
7.34789e-05
-7.24544e-06
7.37154e-05
-4.92315e-06
7.38547e-05
-3.11971e-06
7.39273e-05
-1.77187e-06
7.39535e-05
-8.06552e-07
7.39476e-05
-1.51186e-07
7.39192e-05
2.68012e-07
7.38773e-05
5.06335e-07
7.38284e-05
6.15208e-07
7.37778e-05
6.36222e-07
7.3729e-05
6.01382e-07
7.36844e-05
5.34651e-07
7.36456e-05
4.53233e-07
7.36131e-05
3.68865e-07
7.35868e-05
2.89017e-07
7.35662e-05
2.17962e-07
7.35508e-05
1.57681e-07
7.35397e-05
1.08586e-07
7.3532e-05
7.00929e-08
7.35271e-05
4.10433e-08
7.35243e-05
2.00134e-08
7.35229e-05
5.53267e-09
7.35225e-05
-3.85699e-09
7.35228e-05
-9.38833e-09
7.35235e-05
-1.20961e-08
7.35244e-05
-1.28717e-08
7.35253e-05
-1.24012e-08
7.35262e-05
-1.12038e-08
7.3527e-05
-9.65757e-09
7.35277e-05
-8.02602e-09
7.35283e-05
-6.48326e-09
7.35287e-05
-5.13663e-09
7.35291e-05
-4.04533e-09
7.35294e-05
-3.22996e-09
-2.70999e-09
7.97963e-05
-2.70514e-05
8.32627e-05
-3.34609e-05
8.50582e-05
-3.39903e-05
8.53042e-05
-3.21012e-05
8.44811e-05
-2.86015e-05
8.29856e-05
-2.43e-05
8.11877e-05
-1.98495e-05
7.93799e-05
-1.56522e-05
7.77483e-05
-1.19255e-05
7.63859e-05
-8.76322e-06
7.53183e-05
-6.17783e-06
7.45282e-05
-4.13307e-06
7.39761e-05
-2.56757e-06
7.36142e-05
-1.41001e-06
7.33959e-05
-5.88179e-07
7.3281e-05
-3.63457e-08
7.32352e-05
3.13866e-07
7.32341e-05
5.0738e-07
7.32588e-05
5.90508e-07
7.32964e-05
5.98691e-07
7.33382e-05
5.5955e-07
7.3379e-05
4.93809e-07
7.34159e-05
4.16369e-07
7.34474e-05
3.37392e-07
7.34731e-05
2.63325e-07
7.34932e-05
1.97815e-07
7.35084e-05
1.42493e-07
7.35194e-05
9.76129e-08
7.35269e-05
6.25527e-08
7.35318e-05
3.61929e-08
7.35346e-05
1.71903e-08
7.35359e-05
4.17452e-09
7.35363e-05
-4.20907e-09
7.3536e-05
-9.08249e-09
7.35353e-05
-1.14108e-08
7.35344e-05
-1.2002e-08
7.35335e-05
-1.14813e-08
7.35326e-05
-1.03201e-08
7.35318e-05
-8.85989e-09
7.35311e-05
-7.33783e-09
7.35306e-05
-5.90984e-09
7.35301e-05
-4.67165e-09
7.35297e-05
-3.67586e-09
7.35294e-05
-2.94068e-09
-2.48733e-09
0.000122526
-2.16787e-05
0.000115897
-2.68325e-05
0.000108971
-2.7064e-05
0.00010184
-2.49706e-05
9.49685e-05
-2.17298e-05
8.87041e-05
-1.80356e-05
8.32505e-05
-1.4396e-05
7.87042e-05
-1.11059e-05
7.50679e-05
-8.28922e-06
7.2274e-05
-5.96935e-06
7.02137e-05
-4.11753e-06
6.87616e-05
-2.68094e-06
6.77926e-05
-1.59865e-06
6.71927e-05
-8.10045e-07
6.68634e-05
-2.58879e-07
6.67221e-05
1.04899e-07
6.67089e-05
3.27084e-07
6.67733e-05
4.43043e-07
6.68799e-05
4.83864e-07
6.70041e-05
4.74459e-07
6.71296e-05
4.34113e-07
6.72461e-05
3.77239e-07
6.73484e-05
3.14134e-07
6.7434e-05
2.51745e-07
6.7503e-05
1.94384e-07
6.75564e-05
1.44385e-07
6.75962e-05
1.02666e-07
6.76246e-05
6.91853e-08
6.76439e-05
4.33048e-08
6.7656e-05
2.40637e-08
6.76628e-05
1.03699e-08
6.76659e-05
1.14285e-09
6.76663e-05
-4.66501e-09
6.76652e-05
-7.90425e-09
6.76631e-05
-9.31529e-09
6.76605e-05
-9.49454e-09
6.7658e-05
-8.90393e-09
6.76555e-05
-7.88772e-09
6.76534e-05
-6.6925e-09
6.76515e-05
-5.487e-09
6.765e-05
-4.38058e-09
6.76488e-05
-3.43976e-09
6.76478e-05
-2.70119e-09
6.7647e-05
-2.17935e-09
-1.89809e-09
0.000129041
-1.45241e-05
0.000118859
-1.66506e-05
0.000107974
-1.61791e-05
9.73693e-05
-1.43656e-05
8.77152e-05
-1.20757e-05
7.94047e-05
-9.72506e-06
7.25614e-05
-7.5526e-06
6.71347e-05
-5.67923e-06
6.298e-05
-4.13446e-06
5.99097e-05
-2.89907e-06
5.77278e-05
-1.93563e-06
5.62494e-05
-1.20258e-06
5.53109e-05
-6.6015e-07
5.47734e-05
-2.72491e-07
5.45219e-05
-7.44472e-09
5.44663e-05
1.60497e-07
5.45366e-05
2.56875e-07
5.46795e-05
3.0008e-07
5.48571e-05
3.06276e-07
5.50431e-05
2.88446e-07
5.52206e-05
2.56592e-07
5.53798e-05
2.18113e-07
5.55157e-05
1.7821e-07
5.56271e-05
1.40297e-07
5.57151e-05
1.06393e-07
5.5782e-05
7.74777e-08
5.58309e-05
5.38024e-08
5.58649e-05
3.51368e-08
5.58873e-05
2.09668e-08
5.59007e-05
1.06386e-08
5.59076e-05
3.45892e-09
5.591e-05
-1.2301e-09
5.59094e-05
-4.04351e-09
5.59069e-05
-5.47948e-09
5.59036e-05
-5.95728e-09
5.58999e-05
-5.80908e-09
5.58963e-05
-5.288e-09
5.5893e-05
-4.57911e-09
5.58901e-05
-3.81202e-09
5.58877e-05
-3.07321e-09
5.58857e-05
-2.41728e-09
5.58842e-05
-1.87724e-09
5.58829e-05
-1.47268e-09
5.5882e-05
-1.21882e-09
-1.14166e-09
0.000101482
-5.9976e-06
9.09182e-05
-6.08709e-06
8.02128e-05
-5.47373e-06
7.0395e-05
-4.54775e-06
6.1935e-05
-3.61567e-06
5.49912e-05
-2.78127e-06
4.95141e-05
-2.07554e-06
4.53386e-05
-1.5037e-06
4.22576e-05
-1.0535e-06
4.00643e-05
-7.05724e-07
3.85704e-05
-4.41717e-07
3.76133e-05
-2.45548e-07
3.70572e-05
-1.03956e-07
3.67907e-05
-6.04907e-09
3.67254e-05
5.7863e-08
3.67907e-05
9.51658e-08
3.69346e-05
1.13002e-07
3.71179e-05
1.16817e-07
3.73129e-05
1.11207e-07
3.75015e-05
9.98829e-08
3.76724e-05
8.5667e-08
3.78199e-05
7.05979e-08
3.79421e-05
5.60559e-08
3.80395e-05
4.28913e-08
3.81143e-05
3.15472e-08
3.81697e-05
2.2172e-08
3.82087e-05
1.47148e-08
3.82349e-05
9.00232e-09
3.8251e-05
4.79714e-09
3.82598e-05
1.83938e-09
3.82634e-05
-1.25403e-10
3.82635e-05
-1.32868e-09
3.82615e-05
-1.97382e-09
3.82582e-05
-2.225e-09
3.82545e-05
-2.21365e-09
3.82507e-05
-2.0416e-09
3.82472e-05
-1.78416e-09
3.82441e-05
-1.49443e-09
3.82415e-05
-1.20809e-09
3.82394e-05
-9.47711e-10
3.82377e-05
-7.26886e-10
3.82364e-05
-5.53991e-10
3.82353e-05
-4.36363e-10
3.82345e-05
-3.89948e-10
-4.40979e-10
4.24307e-05
3.63436e-05
3.08698e-05
2.63221e-05
2.27064e-05
1.99251e-05
1.78496e-05
1.63459e-05
1.52924e-05
1.45867e-05
1.4145e-05
1.38994e-05
1.37955e-05
1.37894e-05
1.38473e-05
1.39424e-05
1.40554e-05
1.41723e-05
1.42835e-05
1.43833e-05
1.4469e-05
1.45396e-05
1.45957e-05
1.46386e-05
1.46701e-05
1.46923e-05
1.4707e-05
1.4716e-05
1.47208e-05
1.47226e-05
1.47225e-05
1.47212e-05
1.47192e-05
1.4717e-05
1.47148e-05
1.47127e-05
1.47109e-05
1.47094e-05
1.47082e-05
1.47073e-05
1.47066e-05
1.4706e-05
1.47056e-05
1.47052e-05
)
;

boundaryField
{
    fixedWalls
    {
        type            calculated;
        value           uniform 0;
    }
    inflowWall
    {
        type            calculated;
        value           nonuniform List<scalar> 5(-0.0001 -0.0001 -0.0001 -0.0001 -0.0001);
    }
    outflowWall
    {
        type            calculated;
        value           nonuniform List<scalar> 10(1.4707e-05 3.82368e-05 5.58835e-05 6.76477e-05 7.35296e-05 7.35292e-05 6.76464e-05 5.58812e-05 3.82338e-05 1.47047e-05);
    }
    frontAndBack
    {
        type            empty;
        value           nonuniform List<scalar> 0();
    }
}


// ************************************************************************* //
