/*--------------------------------*- C++ -*----------------------------------*\
| =========                 |                                                 |
| \\      /  F ield         | OpenFOAM: The Open Source CFD Toolbox           |
|  \\    /   O peration     | Version:  2306                                  |
|   \\  /    A nd           | Website:  www.openfoam.com                      |
|    \\/     M anipulation  |                                                 |
\*---------------------------------------------------------------------------*/
FoamFile
{
    version     2.0;
    format      ascii;
    arch        "LSB;label=32;scalar=64";
    class       volScalarField;
    location    "9";
    object      p;
}
// * * * * * * * * * * * * * * * * * * * * * * * * * * * * * * * * * * * * * //

dimensions      [0 2 -2 0 0 0 0];

internalField   nonuniform List<scalar> 
1900
(
0.052975
0.0287579
0.0083699
-0.00696428
-0.0179759
-0.0285178
-0.0389416
-0.0510805
-0.0636019
-0.0776104
0.0237138
0.0155166
0.00420451
-0.00734262
-0.0183589
-0.028536
-0.0389538
-0.0494484
-0.0609222
-0.0719559
0.0146157
0.0101264
0.00261369
-0.00675012
-0.0168279
-0.0267997
-0.0365703
-0.0461131
-0.0555286
-0.0645986
0.00890914
0.00583658
0.000188573
-0.00745702
-0.0163048
-0.0255404
-0.034726
-0.0436337
-0.0522196
-0.0603745
0.00667827
0.00414313
-0.000595076
-0.00724254
-0.0152205
-0.023823
-0.0324967
-0.0409196
-0.048944
-0.0564816
0.00730575
0.00482458
0.000213014
-0.00625333
-0.0139937
-0.0222999
-0.0306137
-0.0386183
-0.0461906
-0.0533019
0.0107549
0.00780794
0.00252488
-0.00456121
-0.0126257
-0.0209184
-0.0289741
-0.0366158
-0.0438359
-0.0506699
0.0174485
0.0131517
0.00625112
-0.00222215
-0.0110483
-0.0194812
-0.0273253
-0.0346749
-0.0416801
-0.0484035
0.0275847
0.0194839
0.00904442
-0.00142197
-0.0107367
-0.0188586
-0.0262404
-0.0333057
-0.0402184
-0.0469391
0.0564329
0.0337585
0.0140477
-2.11909e-05
-0.009687
-0.0173933
-0.0246368
-0.0318731
-0.0390527
-0.0459709
-0.100736
-0.10077
-0.100815
-0.100869
-0.100929
-0.100995
-0.101066
-0.101141
-0.101219
-0.101298
-0.101376
-0.101452
-0.101523
-0.101588
-0.101645
-0.101692
-0.101727
-0.10175
-0.101757
-0.101748
-0.101722
-0.101677
-0.101612
-0.101527
-0.10142
-0.101291
-0.101139
-0.100964
-0.100765
-0.100542
-0.100294
-0.100021
-0.0997218
-0.0993956
-0.0990414
-0.0986579
-0.0982432
-0.0977952
-0.0973107
-0.0967859
-0.0962156
-0.095593
-0.0949092
-0.0941528
-0.0933091
-0.0923599
-0.0912831
-0.0900535
-0.0886424
-0.0870186
-0.0851478
-0.0829931
-0.0805156
-0.0776738
-0.0744237
-0.0707217
-0.0665335
-0.061837
-0.0566137
-0.0508701
-0.0446435
-0.0379827
-0.0309584
-0.0236659
-0.0162166
-0.00873586
-0.0013534
0.0058007
0.0125952
0.0189213
0.0246626
0.029752
0.0341042
0.0377008
0.0404859
0.0424848
0.0436766
0.0441164
0.0438013
0.0428125
0.0411501
0.0389109
0.0360836
0.0327743
0.0289425
0.0247085
0.0199723
0.0148975
0.00925654
0.00336857
-0.100731
-0.100763
-0.10079
-0.100832
-0.100883
-0.100942
-0.101008
-0.101078
-0.101152
-0.101228
-0.101303
-0.101377
-0.101446
-0.10151
-0.101566
-0.101612
-0.101647
-0.101669
-0.101677
-0.101668
-0.101642
-0.101597
-0.101533
-0.101448
-0.101341
-0.101212
-0.10106
-0.100884
-0.100684
-0.100459
-0.100209
-0.099933
-0.0996302
-0.0992997
-0.0989403
-0.0985505
-0.0981285
-0.0976719
-0.0971778
-0.0966421
-0.0960598
-0.0954244
-0.0947278
-0.0939599
-0.0931078
-0.0921557
-0.0910845
-0.0898714
-0.0884908
-0.0869137
-0.0851068
-0.0830319
-0.0806458
-0.0779023
-0.0747511
-0.0711398
-0.067028
-0.0624109
-0.0572734
-0.0516145
-0.0454482
-0.0388288
-0.0318299
-0.0245495
-0.0171003
-0.0096093
-0.00221262
0.00496045
0.0117655
0.0181164
0.0238636
0.0289669
0.0333233
0.0369273
0.0397167
0.0417236
0.0429179
0.0433682
0.0430577
0.0420855
0.0404321
0.0382187
0.0354068
0.0321343
0.0283269
0.0241399
0.0194467
0.0144282
0.00890789
0.00314193
-0.100614
-0.100696
-0.100741
-0.100794
-0.10085
-0.100911
-0.100979
-0.101052
-0.101128
-0.101206
-0.101285
-0.101362
-0.101435
-0.101502
-0.101562
-0.101612
-0.101651
-0.101677
-0.101687
-0.101682
-0.101658
-0.101616
-0.101553
-0.101469
-0.101363
-0.101234
-0.101082
-0.100906
-0.100705
-0.10048
-0.100229
-0.0999519
-0.0996485
-0.0993177
-0.0989584
-0.0985693
-0.0981488
-0.0976948
-0.0972043
-0.0966735
-0.0960974
-0.0954695
-0.0947818
-0.0940253
-0.0931891
-0.0922599
-0.0912212
-0.0900522
-0.0887282
-0.0872222
-0.085501
-0.0835225
-0.0812358
-0.0785935
-0.075552
-0.0720562
-0.0680486
-0.0634861
-0.0583668
-0.0527064
-0.0465323
-0.0399043
-0.0328939
-0.0255972
-0.0181409
-0.0106524
-0.00327193
0.00388855
0.0106749
0.0169992
0.0227223
0.0277956
0.0321219
0.0356942
0.0384535
0.0404339
0.0416066
0.0420432
0.0417288
0.040763
0.0391309
0.0369497
0.0341915
0.0309828
0.0272713
0.0231891
0.0186535
0.0138065
0.00854422
0.00303388
-0.100696
-0.10077
-0.100774
-0.1008
-0.100846
-0.100908
-0.100981
-0.101061
-0.101146
-0.101234
-0.101321
-0.101406
-0.101487
-0.101561
-0.101627
-0.101682
-0.101725
-0.101754
-0.101768
-0.101764
-0.101742
-0.101701
-0.101638
-0.101554
-0.101447
-0.101317
-0.101163
-0.100984
-0.100781
-0.100552
-0.100298
-0.100018
-0.099712
-0.0993793
-0.0990187
-0.098629
-0.0982092
-0.0977573
-0.0972706
-0.0967458
-0.0961778
-0.0955598
-0.0948843
-0.0941436
-0.0933288
-0.0924282
-0.0914263
-0.0903029
-0.0890321
-0.0875903
-0.0859437
-0.0840475
-0.0818452
-0.0792792
-0.0762853
-0.0728256
-0.0688482
-0.06432
-0.0592309
-0.0535984
-0.0474508
-0.0408528
-0.0338826
-0.0266414
-0.0192553
-0.0118487
-0.00456512
0.00247954
0.00914169
0.0153276
0.0209159
0.0258504
0.0300487
0.0334984
0.0361542
0.038045
0.039155
0.0395482
0.0392246
0.0382719
0.0366925
0.0345866
0.0319479
0.0288809
0.0253632
0.0214996
0.0172484
0.0127169
0.00784498
0.00274884
-0.100373
-0.100578
-0.100668
-0.100772
-0.10087
-0.100963
-0.101056
-0.101151
-0.101248
-0.101345
-0.101441
-0.101534
-0.10162
-0.101699
-0.101769
-0.101827
-0.101871
-0.101901
-0.101915
-0.10191
-0.101886
-0.101842
-0.101776
-0.101688
-0.101577
-0.101442
-0.101283
-0.1011
-0.100891
-0.100658
-0.1004
-0.100117
-0.099809
-0.0994751
-0.0991144
-0.0987252
-0.0983071
-0.0978585
-0.0973771
-0.0968592
-0.0962998
-0.0956921
-0.0950276
-0.0943021
-0.0935075
-0.092631
-0.0916559
-0.0905663
-0.0893293
-0.0879126
-0.0862793
-0.0843923
-0.0821924
-0.0796289
-0.076638
-0.0731771
-0.0691964
-0.0646746
-0.0596025
-0.054003
-0.0479118
-0.0413961
-0.0345389
-0.0274446
-0.0202342
-0.0130332
-0.00597706
0.000814573
0.00721505
0.0131273
0.0184503
0.023124
0.0270845
0.0303153
0.032789
0.0345286
0.0355351
0.0358628
0.0355289
0.0346066
0.033117
0.0311417
0.0286957
0.0258619
0.0226431
0.0191211
0.0152842
0.0112148
0.00688844
0.00239595
-0.101203
-0.101226
-0.101125
-0.10108
-0.101091
-0.101149
-0.101236
-0.101337
-0.101439
-0.10154
-0.101638
-0.10173
-0.101814
-0.10189
-0.101955
-0.102008
-0.102047
-0.10207
-0.102077
-0.102066
-0.102035
-0.101983
-0.101911
-0.101816
-0.101699
-0.101558
-0.101394
-0.101205
-0.100993
-0.100755
-0.100494
-0.100208
-0.0998983
-0.0995632
-0.0992017
-0.098812
-0.0983964
-0.0979523
-0.0974761
-0.0969643
-0.0964119
-0.0958128
-0.0951571
-0.0944339
-0.0936351
-0.0927516
-0.0917649
-0.0906555
-0.089393
-0.0879481
-0.0862791
-0.0843462
-0.0820933
-0.0794719
-0.076425
-0.0729132
-0.0688985
-0.0643668
-0.0593161
-0.0537741
-0.0477841
-0.0414176
-0.0347601
-0.0279179
-0.0210061
-0.0141478
-0.00746552
-0.00107544
0.00491381
0.0104096
0.0153306
0.01962
0.0232329
0.0261535
0.0283724
0.0299096
0.0307822
0.0310361
0.0307035
0.0298445
0.0284949
0.0267194
0.0245488
0.0220468
0.0192346
0.0161727
0.0128718
0.00939238
0.00573626
0.00196814
-0.0998831
-0.100527
-0.100729
-0.100984
-0.101199
-0.101361
-0.101483
-0.101584
-0.101676
-0.101764
-0.101847
-0.101924
-0.101995
-0.102056
-0.102107
-0.102147
-0.102173
-0.102186
-0.102183
-0.102162
-0.102123
-0.102064
-0.101985
-0.101884
-0.101761
-0.101616
-0.101446
-0.101254
-0.101038
-0.100799
-0.100536
-0.10025
-0.0999398
-0.0996052
-0.0992449
-0.0988552
-0.0984326
-0.0979796
-0.0974932
-0.0969687
-0.0963994
-0.0957784
-0.0950961
-0.0943438
-0.0935096
-0.0925813
-0.091539
-0.0903619
-0.0890197
-0.0874815
-0.0857066
-0.0836561
-0.0812814
-0.0785396
-0.0753849
-0.0717858
-0.0677164
-0.0631719
-0.0581604
-0.0527167
-0.0468905
-0.0407572
-0.0344027
-0.0279319
-0.0214522
-0.0150797
-0.00892143
-0.00308213
0.00235004
0.0072945
0.0116906
0.0154907
0.0186692
0.0212148
0.0231346
0.024447
0.0251826
0.0253795
0.0250804
0.0243326
0.0231816
0.0216759
0.0198567
0.017769
0.0154467
0.0129303
0.0102458
0.00743169
0.00450789
0.00151482
-0.104588
-0.103209
-0.102581
-0.102147
-0.10192
-0.10183
-0.101818
-0.101843
-0.101881
-0.101927
-0.101976
-0.102025
-0.102072
-0.102114
-0.10215
-0.102177
-0.102194
-0.102199
-0.102188
-0.102159
-0.102114
-0.10205
-0.101966
-0.101862
-0.101738
-0.101592
-0.101422
-0.101226
-0.101004
-0.100758
-0.100487
-0.100191
-0.0998676
-0.0995165
-0.0991355
-0.0987222
-0.0982745
-0.0977903
-0.0972659
-0.0966958
-0.0960727
-0.0953886
-0.0946333
-0.0937962
-0.0928635
-0.0918212
-0.0906497
-0.0893273
-0.0878257
-0.086115
-0.0841593
-0.0819235
-0.0793684
-0.0764602
-0.0731668
-0.0694685
-0.0653529
-0.0608263
-0.0559072
-0.0506371
-0.0450696
-0.0392803
-0.0333513
-0.0273816
-0.0214672
-0.0157122
-0.0102067
-0.00503929
-0.000275156
0.00402229
0.00781421
0.0110659
0.0137696
0.0159199
0.0175364
0.0186361
0.0192576
0.0194307
0.0192038
0.0186113
0.0177037
0.0165138
0.0150889
0.0134566
0.011659
0.00971761
0.00766918
0.00553045
0.00333286
0.00108978
-0.0987553
-0.0998356
-0.100671
-0.101282
-0.101598
-0.101717
-0.101752
-0.101767
-0.101782
-0.101813
-0.101851
-0.101891
-0.10193
-0.101968
-0.102
-0.102025
-0.102041
-0.102049
-0.102048
-0.102028
-0.101987
-0.101925
-0.101841
-0.101733
-0.101601
-0.101444
-0.101261
-0.101051
-0.100811
-0.100542
-0.100242
-0.0999095
-0.0995441
-0.0991436
-0.0987058
-0.0982278
-0.097706
-0.0971364
-0.0965144
-0.0958339
-0.0950872
-0.0942656
-0.0933583
-0.0923536
-0.0912378
-0.0899965
-0.088612
-0.0870645
-0.0853302
-0.0833836
-0.0811966
-0.078742
-0.075992
-0.0729235
-0.0695161
-0.0657606
-0.0616579
-0.0572255
-0.0524915
-0.0475022
-0.0423123
-0.0369934
-0.0316197
-0.0262778
-0.021047
-0.0160133
-0.0112453
-0.00681376
-0.00276494
0.000855227
0.00402839
0.00673263
0.00897456
0.0107527
0.0120948
0.0130139
0.0135527
0.013732
0.0136023
0.0131853
0.0125344
0.0116673
0.0106362
0.0094515
0.00816255
0.00677132
0.00532464
0.00381691
0.0022917
0.000733524
-0.121395
-0.1065
-0.104576
-0.1031
-0.102185
-0.101756
-0.101581
-0.10152
-0.101504
-0.10151
-0.10155
-0.10161
-0.101674
-0.101735
-0.101791
-0.101839
-0.101876
-0.101899
-0.101904
-0.101885
-0.10184
-0.101766
-0.101661
-0.101526
-0.101358
-0.101158
-0.100926
-0.10066
-0.100357
-0.100015
-0.0996313
-0.0992051
-0.0987345
-0.0982178
-0.0976524
-0.0970352
-0.0963623
-0.0956292
-0.0948309
-0.0939612
-0.0930129
-0.0919776
-0.0908455
-0.0896058
-0.088246
-0.0867517
-0.085107
-0.0832955
-0.0812993
-0.0791004
-0.0766798
-0.0740203
-0.0711061
-0.067926
-0.0644738
-0.0607524
-0.0567731
-0.0525597
-0.0481442
-0.0435708
-0.0388894
-0.0341611
-0.0294474
-0.0248182
-0.0203355
-0.0160652
-0.0120568
-0.00836237
-0.00501245
-0.00203856
0.000555548
0.00275785
0.00458354
0.00603297
0.00713721
0.00790579
0.00838239
0.00858007
0.00855011
0.00830326
0.00789486
0.0073288
0.00666207
0.00588786
0.00506369
0.00416969
0.00326484
0.00231597
0.00138491
0.000420485
-0.0890118
-0.095444
-0.0979503
-0.0987998
-0.0992552
-0.0996648
-0.100044
-0.100364
-0.100642
-0.100883
-0.101091
-0.101269
-0.101421
-0.101552
-0.101662
-0.101752
-0.101817
-0.101855
-0.101859
-0.101826
-0.101752
-0.101635
-0.101473
-0.101267
-0.101015
-0.100717
-0.100375
-0.0999859
-0.0995492
-0.0990627
-0.0985249
-0.0979341
-0.0972882
-0.0965845
-0.0958202
-0.0949924
-0.0940978
-0.0931322
-0.0920909
-0.0909685
-0.0897587
-0.0884543
-0.0870473
-0.085529
-0.0838898
-0.0821193
-0.0802071
-0.0781424
-0.0759147
-0.0735138
-0.0709298
-0.0681548
-0.0651826
-0.0620117
-0.0586447
-0.055091
-0.0513664
-0.0474946
-0.0435058
-0.0394382
-0.0353334
-0.0312401
-0.0272076
-0.0232897
-0.0195341
-0.0159894
-0.0126919
-0.00967759
-0.00696383
-0.00456894
-0.00248952
-0.000729623
0.000729286
0.00189082
0.00278586
0.00342353
0.00384591
0.00406271
0.00412323
0.00403155
0.00384182
0.00354749
0.00320736
0.00279943
0.00238831
0.00193094
0.00150033
0.00102728
0.000598971
0.00011476
-0.0831778
-0.0909449
-0.0949201
-0.0963418
-0.0967788
-0.097123
-0.0976311
-0.0982593
-0.0988943
-0.099463
-0.0999405
-0.100334
-0.100661
-0.100937
-0.10117
-0.101359
-0.101502
-0.101592
-0.101624
-0.101594
-0.101497
-0.101333
-0.1011
-0.1008
-0.100433
-0.100001
-0.0995061
-0.098948
-0.0983278
-0.0976454
-0.0969006
-0.0960928
-0.0952208
-0.0942833
-0.0932783
-0.0922038
-0.0910571
-0.0898352
-0.0885341
-0.0871498
-0.0856775
-0.084112
-0.0824477
-0.0806791
-0.0788001
-0.0768049
-0.0746878
-0.0724436
-0.0700674
-0.0675549
-0.0649027
-0.0621093
-0.0591746
-0.0561023
-0.0528995
-0.049578
-0.0461544
-0.042651
-0.0390953
-0.0355205
-0.0319631
-0.0284628
-0.0250584
-0.0217892
-0.01869
-0.0157941
-0.0131259
-0.0107075
-0.00854881
-0.00665865
-0.0050307
-0.00366
-0.00252563
-0.00161703
-0.000905801
-0.000379576
-1.79945e-06
0.000238905
0.0003852
0.000440578
0.000451202
0.000406117
0.000357328
0.00027418
0.000220414
0.000135683
0.000102571
1.46584e-05
-1.07294e-05
-0.000140764
-0.0730375
-0.0802079
-0.0855511
-0.0890545
-0.0912186
-0.0926964
-0.0939358
-0.0951168
-0.0962526
-0.0972982
-0.0982153
-0.0989935
-0.099643
-0.100181
-0.100622
-0.100972
-0.101234
-0.101404
-0.101479
-0.101457
-0.101336
-0.101117
-0.100802
-0.100394
-0.0998952
-0.099311
-0.0986447
-0.0978997
-0.0970791
-0.0961853
-0.09522
-0.0941843
-0.0930787
-0.0919029
-0.0906562
-0.0893372
-0.0879441
-0.0864744
-0.0849256
-0.0832946
-0.0815783
-0.0797736
-0.0778772
-0.0758862
-0.0737981
-0.0716106
-0.0693224
-0.0669327
-0.0644414
-0.0618497
-0.0591596
-0.0563747
-0.0535003
-0.0505436
-0.0475137
-0.0444227
-0.0412863
-0.0381246
-0.0349627
-0.03183
-0.0287592
-0.0257842
-0.0229368
-0.0202449
-0.0177304
-0.0154104
-0.0132964
-0.0113977
-0.00971919
-0.00826356
-0.00702308
-0.00598453
-0.00512296
-0.00441825
-0.00384435
-0.0033859
-0.00301652
-0.00272291
-0.00247457
-0.00226487
-0.00206347
-0.00187894
-0.00167798
-0.00148804
-0.00126202
-0.00105836
-0.000802881
-0.00061358
-0.000358083
-0.000264319
-0.0678916
-0.074521
-0.0800057
-0.0842429
-0.087356
-0.089654
-0.0914767
-0.0930626
-0.0945198
-0.0958659
-0.0970809
-0.098144
-0.0990489
-0.0998014
-0.100412
-0.10089
-0.101239
-0.10146
-0.101552
-0.101514
-0.101347
-0.101052
-0.100636
-0.100102
-0.0994569
-0.0987077
-0.0978604
-0.096921
-0.0958947
-0.0947861
-0.0935991
-0.0923365
-0.0910001
-0.0895908
-0.0881086
-0.0865528
-0.0849221
-0.0832149
-0.0814297
-0.0795645
-0.0776178
-0.0755883
-0.0734751
-0.0712779
-0.0689971
-0.0666341
-0.0641911
-0.0616717
-0.0590806
-0.0564237
-0.0537082
-0.0509424
-0.0481354
-0.0452969
-0.0424372
-0.0395678
-0.0367026
-0.0338586
-0.0310572
-0.0283243
-0.02569
-0.0231858
-0.0208395
-0.0186706
-0.0166868
-0.0148858
-0.01326
-0.0118048
-0.0105203
-0.00940843
-0.00846301
-0.00766705
-0.00699163
-0.0064076
-0.00589006
-0.00542677
-0.00500609
-0.00462097
-0.0042553
-0.00390169
-0.00354375
-0.00318304
-0.00280499
-0.00242456
-0.00202188
-0.00163353
-0.00121899
-0.000867066
-0.000474838
-0.000273153
-0.0634497
-0.0697401
-0.0752247
-0.0798097
-0.0835036
-0.0864397
-0.0888271
-0.0908644
-0.0926838
-0.0943437
-0.0958517
-0.0971945
-0.0983588
-0.0993397
-0.10014
-0.100765
-0.10122
-0.101507
-0.101628
-0.101583
-0.101376
-0.101011
-0.100496
-0.0998395
-0.099051
-0.0981399
-0.0971151
-0.0959849
-0.0947567
-0.0934376
-0.0920336
-0.0905496
-0.088989
-0.0873537
-0.0856446
-0.0838615
-0.082004
-0.080071
-0.0780618
-0.0759757
-0.0738127
-0.0715734
-0.0692591
-0.0668722
-0.0644161
-0.0618953
-0.0593158
-0.056685
-0.054012
-0.0513079
-0.048585
-0.0458565
-0.0431351
-0.0404325
-0.0377593
-0.0351259
-0.0325431
-0.0300227
-0.0275786
-0.0252295
-0.0230007
-0.0209217
-0.0190186
-0.0173057
-0.0157783
-0.014412
-0.0131771
-0.0120547
-0.0110425
-0.0101452
-0.00936288
-0.00868523
-0.00808604
-0.00753193
-0.00699722
-0.00647313
-0.00595965
-0.00546288
-0.00498488
-0.00452657
-0.00408062
-0.00364374
-0.00320455
-0.00276362
-0.00231036
-0.00185826
-0.00139513
-0.000967572
-0.000534333
-0.000263173
-0.0599333
-0.0660305
-0.0715079
-0.0762886
-0.08035
-0.0837463
-0.0865984
-0.0890512
-0.0912244
-0.0931895
-0.0949723
-0.0965705
-0.0979717
-0.099165
-0.100146
-0.100914
-0.101471
-0.101819
-0.101961
-0.101899
-0.10164
-0.101191
-0.100564
-0.0997713
-0.0988273
-0.0977448
-0.0965352
-0.0952089
-0.0937756
-0.0922445
-0.0906237
-0.0889198
-0.0871378
-0.0852812
-0.0833518
-0.0813504
-0.0792772
-0.077132
-0.0749149
-0.0726263
-0.0702679
-0.0678419
-0.0653524
-0.0628043
-0.0602045
-0.0575607
-0.0548822
-0.0521795
-0.0494655
-0.0467556
-0.0440675
-0.0414189
-0.0388251
-0.036298
-0.0338466
-0.031478
-0.0291976
-0.0270107
-0.0249214
-0.0229343
-0.0210656
-0.0193396
-0.0177789
-0.0163965
-0.0151851
-0.0141085
-0.0131244
-0.0122041
-0.0113411
-0.0105377
-0.00979076
-0.0091077
-0.00848691
-0.00791017
-0.00735844
-0.00682744
-0.00630799
-0.00579442
-0.00528669
-0.00478638
-0.00429259
-0.00380521
-0.00332191
-0.00284351
-0.00236604
-0.00189327
-0.00142192
-0.000974361
-0.000543277
-0.000254272
-0.0571166
-0.0631213
-0.0686031
-0.0734965
-0.0777811
-0.0814895
-0.0846984
-0.0875065
-0.0900063
-0.0922636
-0.0943105
-0.0961522
-0.0977788
-0.0991764
-0.100334
-0.101244
-0.101905
-0.102316
-0.102479
-0.102399
-0.102083
-0.101543
-0.100795
-0.0998571
-0.0987509
-0.097493
-0.0960977
-0.0945775
-0.0929444
-0.0912093
-0.0893825
-0.0874724
-0.0854858
-0.0834276
-0.0813009
-0.0791076
-0.0768489
-0.0745255
-0.0721386
-0.0696901
-0.0671827
-0.0646208
-0.0620105
-0.05936
-0.0566793
-0.0539799
-0.0512738
-0.0485729
-0.0458913
-0.0432468
-0.0406605
-0.0381506
-0.0357311
-0.0334106
-0.0311936
-0.0290808
-0.0270717
-0.0251662
-0.0233649
-0.0216698
-0.020085
-0.0186208
-0.0172893
-0.0160902
-0.0150088
-0.0140284
-0.0131307
-0.0122964
-0.011516
-0.0107907
-0.0101135
-0.00945954
-0.00881064
-0.00816301
-0.00752773
-0.00691332
-0.00632843
-0.00577548
-0.00525438
-0.00475825
-0.00427772
-0.00380575
-0.00333657
-0.00286807
-0.00239816
-0.00192867
-0.00146217
-0.0010113
-0.000592471
-0.000250501
-0.0548063
-0.060798
-0.0662957
-0.0712553
-0.0756772
-0.0795984
-0.0830793
-0.0861871
-0.0889855
-0.0915241
-0.0938312
-0.0959135
-0.0977626
-0.0993622
-0.100696
-0.10175
-0.102516
-0.102992
-0.103178
-0.103079
-0.102706
-0.102073
-0.101202
-0.100118
-0.0988501
-0.0974198
-0.0958465
-0.0941472
-0.0923373
-0.09043
-0.088437
-0.0863675
-0.0842289
-0.0820265
-0.0797637
-0.0774431
-0.0750664
-0.0726351
-0.0701512
-0.0676175
-0.0650377
-0.0624175
-0.0597641
-0.0570873
-0.0543991
-0.0517136
-0.0490453
-0.0464058
-0.0438118
-0.0412846
-0.0388423
-0.0364972
-0.0342552
-0.0321171
-0.0300804
-0.0281408
-0.0262934
-0.0245388
-0.0228872
-0.0213547
-0.0199544
-0.018688
-0.0175459
-0.0165024
-0.0154991
-0.0145025
-0.0135107
-0.0125439
-0.0116394
-0.0108141
-0.0100649
-0.00938497
-0.00874852
-0.00813563
-0.00753734
-0.00695339
-0.00638622
-0.00584198
-0.00531939
-0.00481405
-0.0043214
-0.00383785
-0.00336071
-0.00288859
-0.00242051
-0.00195669
-0.00149905
-0.00105731
-0.000646909
-0.00025524
-0.0533401
-0.0593069
-0.0647804
-0.0697525
-0.0742478
-0.0783079
-0.0819811
-0.0853149
-0.0883518
-0.0911256
-0.0936563
-0.0959481
-0.0979912
-0.0997672
-0.101255
-0.102435
-0.103293
-0.103821
-0.104018
-0.103892
-0.103457
-0.102735
-0.101754
-0.10054
-0.0991213
-0.097528
-0.0957897
-0.093932
-0.0919758
-0.0899377
-0.0878301
-0.0856625
-0.083441
-0.0811698
-0.0788515
-0.0764873
-0.0740782
-0.0716251
-0.0691295
-0.0665936
-0.0640207
-0.0614161
-0.0587867
-0.0561415
-0.0534923
-0.0508535
-0.0482426
-0.0456815
-0.0431921
-0.0407933
-0.0384992
-0.0363177
-0.0342482
-0.0322807
-0.0303978
-0.0285809
-0.0268147
-0.0250859
-0.0233998
-0.0217789
-0.020253
-0.0188508
-0.0175846
-0.0164367
-0.0153845
-0.014399
-0.0134632
-0.01257
-0.0117223
-0.0109289
-0.0101935
-0.00950462
-0.00884737
-0.00821198
-0.00759569
-0.00700006
-0.00642725
-0.00587745
-0.00534884
-0.00483817
-0.0043413
-0.00385456
-0.0033754
-0.00290287
-0.00243712
-0.00197904
-0.00153033
-0.00109651
-0.000684104
-0.000262747
-0.0524625
-0.0584524
-0.0639324
-0.0689293
-0.0734831
-0.0776367
-0.0814336
-0.0849169
-0.0881221
-0.0910707
-0.0937703
-0.0962164
-0.0983952
-0.100287
-0.10187
-0.103125
-0.104038
-0.104599
-0.10481
-0.10468
-0.104226
-0.103474
-0.102454
-0.101197
-0.0997371
-0.0981056
-0.0963314
-0.0944405
-0.0924542
-0.0903901
-0.0882613
-0.0860775
-0.0838449
-0.0815679
-0.0792487
-0.0768885
-0.0744881
-0.0720481
-0.0695692
-0.0670533
-0.0645031
-0.0619228
-0.0593183
-0.0566976
-0.0540709
-0.0514506
-0.0488516
-0.0462907
-0.043785
-0.0413511
-0.039003
-0.0367507
-0.0345983
-0.0325438
-0.0305814
-0.0287015
-0.0268845
-0.025131
-0.0234497
-0.0218579
-0.0203746
-0.0190115
-0.0177718
-0.0166377
-0.0155777
-0.0145666
-0.013595
-0.0126671
-0.0117944
-0.010984
-0.0102341
-0.00953458
-0.0088711
-0.00823341
-0.00761742
-0.00702302
-0.00645118
-0.0059019
-0.00537288
-0.00486047
-0.00436086
-0.00387103
-0.00338914
-0.00291488
-0.00244925
-0.00199416
-0.00155144
-0.00112262
-0.000705814
-0.000271884
)
;

boundaryField
{
    fixedWalls
    {
        type            zeroGradient;
    }
    inflowWall
    {
        type            zeroGradient;
    }
    outflowWall
    {
        type            fixedValue;
        value           uniform 0;
    }
    frontAndBack
    {
        type            empty;
    }
}


// ************************************************************************* //
