/*--------------------------------*- C++ -*----------------------------------*\
| =========                 |                                                 |
| \\      /  F ield         | OpenFOAM: The Open Source CFD Toolbox           |
|  \\    /   O peration     | Version:  2306                                  |
|   \\  /    A nd           | Website:  www.openfoam.com                      |
|    \\/     M anipulation  |                                                 |
\*---------------------------------------------------------------------------*/
FoamFile
{
    version     2.0;
    format      ascii;
    arch        "LSB;label=32;scalar=64";
    class       surfaceScalarField;
    location    "9";
    object      phi;
}
// * * * * * * * * * * * * * * * * * * * * * * * * * * * * * * * * * * * * * //

dimensions      [0 3 -1 0 0 0 0];

oriented        oriented;

internalField   nonuniform List<scalar> 
3680
(
4.93468e-05
6.53221e-07
4.7974e-05
1.3728e-06
4.66971e-05
1.27692e-06
4.52597e-05
1.4374e-06
4.41206e-05
1.13906e-06
4.2716e-05
1.40454e-06
4.17301e-05
9.85971e-07
4.04268e-05
1.30324e-06
3.97904e-05
6.36471e-07
9.91584e-07
3.87988e-05
5.03392e-05
3.13973e-07
5.08676e-05
8.44492e-07
5.11317e-05
1.01273e-06
5.14642e-05
1.10491e-06
5.15913e-05
1.01196e-06
5.19732e-05
1.02271e-06
5.20574e-05
9.01765e-07
5.25065e-05
8.54078e-07
5.24997e-05
6.43311e-07
4.38886e-07
5.30524e-05
5.01633e-05
1.50709e-07
5.05552e-05
4.5256e-07
5.09755e-05
5.92389e-07
5.14188e-05
6.61618e-07
5.18156e-05
6.15221e-07
5.22661e-05
5.72132e-07
5.26928e-05
4.75083e-07
5.31615e-05
3.85417e-07
5.35777e-05
2.27059e-07
2.18032e-08
5.39948e-05
5.00932e-05
5.74967e-08
5.03763e-05
1.69513e-07
5.07338e-05
2.34845e-07
5.11456e-05
2.49789e-07
5.1549e-05
2.1184e-07
5.19712e-05
1.49964e-07
5.2382e-05
6.4261e-08
5.28098e-05
-4.23814e-08
5.32196e-05
-1.82701e-07
-3.50454e-07
5.35918e-05
5.00738e-05
-1.62895e-08
5.02912e-05
-4.79032e-08
5.0611e-05
-8.49422e-08
5.09885e-05
-1.27761e-07
5.138e-05
-1.79601e-07
5.17739e-05
-2.4393e-07
5.21645e-05
-3.26318e-07
5.25509e-05
-4.28823e-07
5.29207e-05
-5.52506e-07
-6.96815e-07
5.32671e-05
5.00732e-05
-8.94623e-08
5.02829e-05
-2.5767e-07
5.05978e-05
-3.99794e-07
5.09653e-05
-4.95279e-07
5.13444e-05
-5.58735e-07
5.17217e-05
-6.21201e-07
5.20917e-05
-6.96262e-07
5.2453e-05
-7.90147e-07
5.28029e-05
-9.02456e-07
-1.02888e-06
5.3135e-05
5.00942e-05
-1.83678e-07
5.03556e-05
-5.19091e-07
5.06984e-05
-7.42525e-07
5.10684e-05
-8.65353e-07
5.1441e-05
-9.31298e-07
5.1805e-05
-9.85235e-07
5.21621e-05
-1.05331e-06
5.25138e-05
-1.14191e-06
5.28552e-05
-1.24384e-06
-1.35094e-06
5.31773e-05
5.01665e-05
-3.50177e-07
5.05181e-05
-8.70718e-07
5.0921e-05
-1.14543e-06
5.13e-05
-1.24434e-06
5.16491e-05
-1.28041e-06
5.19869e-05
-1.323e-06
5.23213e-05
-1.38768e-06
5.26433e-05
-1.46396e-06
5.29393e-05
-1.5398e-06
-1.60971e-06
5.31981e-05
5.03676e-05
-7.17823e-07
5.08006e-05
-1.30362e-06
5.10995e-05
-1.44434e-06
5.12773e-05
-1.42216e-06
5.14063e-05
-1.40942e-06
5.15056e-05
-1.42232e-06
5.15578e-05
-1.43992e-06
5.15464e-05
-1.45251e-06
5.1463e-05
-1.45645e-06
-1.45506e-06
5.13084e-05
4.92822e-05
4.79786e-05
4.65342e-05
4.51121e-05
4.37026e-05
4.22803e-05
4.08404e-05
3.93879e-05
3.79314e-05
3.64764e-05
1.42834e-08
-1.42834e-08
1.04614e-08
3.822e-09
-8.48332e-09
1.89447e-08
-3.72292e-08
2.87459e-08
-7.29498e-08
3.57206e-08
-1.14362e-07
4.14118e-08
-1.61071e-07
4.67097e-08
-2.12827e-07
5.17553e-08
-2.69336e-07
5.65088e-08
-3.30262e-07
6.09265e-08
-3.95239e-07
6.49773e-08
-4.63886e-07
6.8647e-08
-5.35821e-07
7.19342e-08
-6.10666e-07
7.48459e-08
-6.88062e-07
7.73952e-08
-7.67663e-07
7.96013e-08
-8.4915e-07
8.14865e-08
-9.32223e-07
8.30732e-08
-1.01661e-06
8.43843e-08
-1.10206e-06
8.54523e-08
-1.18838e-06
8.63162e-08
-1.2754e-06
8.70196e-08
-1.36301e-06
8.76107e-08
-1.45115e-06
8.81401e-08
-1.53981e-06
8.86611e-08
-1.62904e-06
8.92311e-08
-1.71895e-06
8.99141e-08
-1.80973e-06
9.07793e-08
-1.90163e-06
9.18973e-08
-1.99497e-06
9.33399e-08
-2.09015e-06
9.51769e-08
-2.18762e-06
9.74727e-08
-2.2879e-06
1.00285e-07
-2.39158e-06
1.03677e-07
-2.49931e-06
1.07729e-07
-2.61186e-06
1.12552e-07
-2.73014e-06
1.18276e-07
-2.85519e-06
1.25052e-07
-2.98827e-06
1.33081e-07
-3.13088e-06
1.4261e-07
-3.28484e-06
1.53956e-07
-3.45236e-06
1.67522e-07
-3.63613e-06
1.83775e-07
-3.83927e-06
2.03137e-07
-4.06507e-06
2.25805e-07
-4.31669e-06
2.51612e-07
-4.59655e-06
2.79861e-07
-4.90583e-06
3.09282e-07
-5.24387e-06
3.38044e-07
-5.6076e-06
3.6373e-07
-5.99081e-06
3.83205e-07
-6.38407e-06
3.93264e-07
-6.77526e-06
3.91189e-07
-7.15059e-06
3.75326e-07
-7.49478e-06
3.44189e-07
-7.79148e-06
2.96709e-07
-8.02557e-06
2.34081e-07
-8.18876e-06
1.63193e-07
-8.26744e-06
7.86859e-08
-8.2508e-06
-1.6649e-08
-8.13893e-06
-1.11866e-07
-7.92861e-06
-2.10317e-07
-7.61869e-06
-3.09918e-07
-7.21252e-06
-4.06176e-07
-6.71482e-06
-4.97694e-07
-6.13295e-06
-5.81875e-07
-5.47498e-06
-6.57967e-07
-4.74947e-06
-7.2551e-07
-3.9684e-06
-7.81076e-07
-3.13884e-06
-8.29556e-07
-2.27745e-06
-8.61386e-07
-1.38884e-06
-8.88616e-07
-4.89837e-07
-8.99001e-07
4.17643e-07
-9.0748e-07
1.31633e-06
-8.98683e-07
2.20982e-06
-8.93493e-07
3.07855e-06
-8.68736e-07
3.93217e-06
-8.53614e-07
4.74984e-06
-8.17672e-07
5.54763e-06
-7.97785e-07
6.3031e-06
-7.55478e-07
7.03927e-06
-7.3617e-07
7.73158e-06
-6.92303e-07
8.41029e-06
-6.78716e-07
9.04834e-06
-6.38043e-07
9.68359e-06
-6.35253e-07
1.02861e-05
-6.02486e-07
1.0904e-05
-6.17889e-07
1.15031e-05
-5.99167e-07
-6.59996e-07
-1.13312e-08
-2.95218e-09
-6.57402e-08
5.8231e-08
-1.50318e-07
1.03523e-07
-2.56825e-07
1.35253e-07
-3.80406e-07
1.59301e-07
-5.18681e-07
1.79687e-07
-6.69991e-07
1.9802e-07
-8.32849e-07
2.14613e-07
-1.00583e-06
2.29492e-07
-1.18757e-06
2.42661e-07
-1.37673e-06
2.54139e-07
-1.57205e-06
2.6397e-07
-1.77235e-06
2.72231e-07
-1.97653e-06
2.79026e-07
-2.18361e-06
2.84473e-07
-2.39271e-06
2.88706e-07
-2.60309e-06
2.91865e-07
-2.8141e-06
2.94089e-07
-3.02523e-06
2.95514e-07
-3.23608e-06
2.96295e-07
-3.44636e-06
2.966e-07
-3.65594e-06
2.96603e-07
-3.86482e-06
2.96482e-07
-4.07309e-06
2.96415e-07
-4.28101e-06
2.96579e-07
-4.48893e-06
2.97157e-07
-4.69736e-06
2.98336e-07
-4.90689e-06
3.0031e-07
-5.11825e-06
3.03263e-07
-5.33228e-06
3.0737e-07
-5.54989e-06
3.12787e-07
-5.77206e-06
3.19645e-07
-5.99982e-06
3.28042e-07
-6.2342e-06
3.38056e-07
-6.47624e-06
3.49772e-07
-6.72698e-06
3.63289e-07
-6.98738e-06
3.78675e-07
-7.25826e-06
3.95935e-07
-7.54024e-06
4.15062e-07
-7.83364e-06
4.36003e-07
-8.13835e-06
4.58673e-07
-8.4538e-06
4.82968e-07
-8.77877e-06
5.08749e-07
-9.11131e-06
5.35671e-07
-9.44837e-06
5.6287e-07
-9.78571e-06
5.88944e-07
-1.01176e-05
6.11785e-07
-1.0437e-05
6.28661e-07
-1.07353e-05
6.36385e-07
-1.10033e-05
6.31693e-07
-1.12304e-05
6.1033e-07
-1.14057e-05
5.68486e-07
-1.15174e-05
5.02937e-07
-1.15551e-05
4.13e-07
-1.15094e-05
2.98496e-07
-1.13722e-05
1.5949e-07
-1.11296e-05
-8.5001e-09
-1.07883e-05
-1.78113e-07
-1.03424e-05
-3.67212e-07
-9.79302e-06
-5.66008e-07
-9.13447e-06
-7.70423e-07
-8.3724e-06
-9.72386e-07
-7.51041e-06
-1.17191e-06
-6.55556e-06
-1.36102e-06
-5.51479e-06
-1.53847e-06
-4.39795e-06
-1.69871e-06
-3.21383e-06
-1.84209e-06
-1.97411e-06
-1.96523e-06
-6.88708e-07
-2.06647e-06
6.28517e-07
-2.14678e-06
1.9694e-06
-2.20227e-06
3.32436e-06
-2.24357e-06
4.68129e-06
-2.25594e-06
6.03581e-06
-2.26199e-06
7.37366e-06
-2.23654e-06
8.69478e-06
-2.21461e-06
9.98562e-06
-2.15958e-06
1.12502e-05
-2.11816e-06
1.24753e-05
-2.0428e-06
1.36695e-05
-1.99196e-06
1.48199e-05
-1.90586e-06
1.59395e-05
-1.85585e-06
1.70156e-05
-1.76832e-06
1.80662e-05
-1.72937e-06
1.90773e-05
-1.64916e-06
2.00741e-05
-1.63199e-06
2.10395e-05
-1.56793e-06
2.20082e-05
-1.58658e-06
2.29579e-05
-1.54889e-06
-1.61231e-06
-5.07801e-08
4.78279e-08
-1.88526e-07
1.95977e-07
-3.72364e-07
2.87361e-07
-5.83318e-07
3.46207e-07
-8.12434e-07
3.88416e-07
-1.05725e-06
4.24502e-07
-1.31608e-06
4.5685e-07
-1.58631e-06
4.84847e-07
-1.86526e-06
5.08445e-07
-2.15043e-06
5.27823e-07
-2.43952e-06
5.43228e-07
-2.73052e-06
5.54971e-07
-3.0217e-06
5.63412e-07
-3.3116e-06
5.68927e-07
-3.59903e-06
5.71899e-07
-3.88302e-06
5.72702e-07
-4.16285e-06
5.71697e-07
-4.43799e-06
5.69225e-07
-4.70803e-06
5.65549e-07
-4.97273e-06
5.61004e-07
-5.23205e-06
5.55912e-07
-5.48602e-06
5.50575e-07
-5.73482e-06
5.45281e-07
-5.9787e-06
5.403e-07
-6.218e-06
5.35876e-07
-6.45308e-06
5.32236e-07
-6.68434e-06
5.29601e-07
-6.91221e-06
5.28183e-07
-7.1371e-06
5.28152e-07
-7.35937e-06
5.29635e-07
-7.5793e-06
5.32715e-07
-7.79706e-06
5.37408e-07
-8.01268e-06
5.43661e-07
-8.22597e-06
5.51344e-07
-8.4365e-06
5.60304e-07
-8.64363e-06
5.7042e-07
-8.84645e-06
5.81492e-07
-9.04362e-06
5.9311e-07
-9.23342e-06
6.04858e-07
-9.41364e-06
6.1622e-07
-9.58153e-06
6.26567e-07
-9.73374e-06
6.35179e-07
-9.86633e-06
6.41334e-07
-9.97482e-06
6.44169e-07
-1.00541e-05
6.42153e-07
-1.00985e-05
6.3331e-07
-1.01017e-05
6.15006e-07
-1.00571e-05
5.841e-07
-9.95745e-06
5.36698e-07
-9.79644e-06
4.70687e-07
-9.56814e-06
3.82025e-07
-9.26756e-06
2.67907e-07
-8.88862e-06
1.24003e-07
-8.42711e-06
-4.85169e-08
-7.88437e-06
-2.4424e-07
-7.25837e-06
-4.66506e-07
-6.55274e-06
-7.14136e-07
-5.75504e-06
-9.75812e-07
-4.87113e-06
-1.25112e-06
-3.90764e-06
-1.5295e-06
-2.8662e-06
-1.81186e-06
-1.75315e-06
-2.08543e-06
-5.71744e-07
-2.35331e-06
6.67078e-07
-2.59984e-06
1.95917e-06
-2.83057e-06
3.29417e-06
-3.03371e-06
4.66709e-06
-3.21501e-06
6.06553e-06
-3.36367e-06
7.48416e-06
-3.4851e-06
8.91258e-06
-3.5752e-06
1.03438e-05
-3.63346e-06
1.1768e-05
-3.66776e-06
1.31792e-05
-3.66714e-06
1.45691e-05
-3.65189e-06
1.59334e-05
-3.60088e-06
1.72657e-05
-3.54692e-06
1.85635e-05
-3.45739e-06
1.98232e-05
-3.37782e-06
2.10433e-05
-3.26291e-06
2.22233e-05
-3.17202e-06
2.33627e-05
-3.04518e-06
2.44641e-05
-2.95733e-06
2.55272e-05
-2.83137e-06
2.65585e-05
-2.76073e-06
2.7557e-05
-2.64761e-06
2.85333e-05
-2.60825e-06
2.94853e-05
-2.51998e-06
3.04255e-05
-2.52674e-06
3.13509e-05
-2.47427e-06
-2.54852e-06
-1.38986e-07
1.86814e-07
-3.94229e-07
4.5122e-07
-6.88986e-07
5.82118e-07
-1.00091e-06
6.58128e-07
-1.3277e-06
7.15204e-07
-1.66642e-06
7.63229e-07
-2.01203e-06
8.02458e-07
-2.35973e-06
8.32547e-07
-2.70545e-06
8.54166e-07
-3.04612e-06
8.6849e-07
-3.37922e-06
8.76335e-07
-3.70286e-06
8.78611e-07
-4.01568e-06
8.76226e-07
-4.31673e-06
8.69978e-07
-4.60541e-06
8.6058e-07
-4.88139e-06
8.48677e-07
-5.14453e-06
8.34843e-07
-5.39486e-06
8.19556e-07
-5.63253e-06
8.03215e-07
-5.85775e-06
7.86224e-07
-6.07079e-06
7.68956e-07
-6.27195e-06
7.51735e-07
-6.46152e-06
7.3485e-07
-6.63977e-06
7.18549e-07
-6.80692e-06
7.03027e-07
-6.96312e-06
6.88431e-07
-7.1084e-06
6.74885e-07
-7.24274e-06
6.62521e-07
-7.36598e-06
6.51386e-07
-7.4778e-06
6.41455e-07
-7.57772e-06
6.32643e-07
-7.6651e-06
6.24784e-07
-7.73906e-06
6.17617e-07
-7.79849e-06
6.10776e-07
-7.842e-06
6.03818e-07
-7.86795e-06
5.96371e-07
-7.87457e-06
5.88109e-07
-7.85971e-06
5.78246e-07
-7.82087e-06
5.66019e-07
-7.75522e-06
5.5057e-07
-7.65952e-06
5.30873e-07
-7.53017e-06
5.0583e-07
-7.36294e-06
4.74105e-07
-7.15387e-06
4.35096e-07
-6.89868e-06
3.86958e-07
-6.59289e-06
3.27527e-07
-6.23179e-06
2.539e-07
-5.81154e-06
1.6385e-07
-5.32653e-06
5.169e-08
-4.77589e-06
-7.99497e-08
-4.15773e-06
-2.36136e-07
-3.47061e-06
-4.1922e-07
-2.71399e-06
-6.32612e-07
-1.88997e-06
-8.72541e-07
-9.93454e-07
-1.14075e-06
-2.99642e-08
-1.43e-06
9.99181e-07
-1.74328e-06
2.08859e-06
-2.06523e-06
3.23774e-06
-2.40027e-06
4.44072e-06
-2.73248e-06
5.6958e-06
-3.06693e-06
6.9949e-06
-3.38454e-06
8.33524e-06
-3.69365e-06
9.70812e-06
-3.97272e-06
1.11105e-05
-4.23291e-06
1.25312e-05
-4.45441e-06
1.3966e-05
-4.6498e-06
1.54045e-05
-4.80221e-06
1.68421e-05
-4.92272e-06
1.82683e-05
-5.00139e-06
1.96801e-05
-5.04527e-06
2.10658e-05
-5.05346e-06
2.24256e-05
-5.02689e-06
2.37479e-05
-4.97418e-06
2.50356e-05
-4.8886e-06
2.62781e-05
-4.78943e-06
2.74808e-05
-4.66015e-06
2.86347e-05
-4.53169e-06
2.97473e-05
-4.37552e-06
3.08111e-05
-4.23579e-06
3.18355e-05
-4.06955e-06
3.28143e-05
-3.93615e-06
3.37586e-05
-3.77564e-06
3.4663e-05
-3.66517e-06
3.55403e-05
-3.5249e-06
3.63851e-05
-3.45306e-06
3.72118e-05
-3.34671e-06
3.80143e-05
-3.32918e-06
3.88116e-05
-3.27158e-06
-3.32909e-06
-1.96e-07
3.82814e-07
-5.67227e-07
8.22447e-07
-9.85713e-07
1.0006e-06
-1.41309e-06
1.08551e-06
-1.83307e-06
1.13518e-06
-2.23694e-06
1.1671e-06
-2.62101e-06
1.18653e-06
-2.98421e-06
1.19575e-06
-3.32484e-06
1.19479e-06
-3.6415e-06
1.18515e-06
-3.93363e-06
1.16847e-06
-4.20123e-06
1.14621e-06
-4.44467e-06
1.11967e-06
-4.66463e-06
1.08994e-06
-4.86195e-06
1.05789e-06
-5.03755e-06
1.02428e-06
-5.19241e-06
9.89711e-07
-5.32752e-06
9.54659e-07
-5.44371e-06
9.19408e-07
-5.5418e-06
8.84315e-07
-5.62252e-06
8.49673e-07
-5.68648e-06
8.15694e-07
-5.73416e-06
7.82529e-07
-5.76591e-06
7.50302e-07
-5.78194e-06
7.19053e-07
-5.78226e-06
6.88755e-07
-5.7667e-06
6.59324e-07
-5.73494e-06
6.30761e-07
-5.6865e-06
6.02951e-07
-5.62071e-06
5.75665e-07
-5.5367e-06
5.48633e-07
-5.43342e-06
5.21497e-07
-5.3096e-06
4.93803e-07
-5.1638e-06
4.64976e-07
-4.9943e-06
4.34319e-07
-4.79905e-06
4.01115e-07
-4.57624e-06
3.65302e-07
-4.32369e-06
3.25696e-07
-4.03894e-06
2.81269e-07
-3.71934e-06
2.30972e-07
-3.3619e-06
1.73428e-07
-2.96344e-06
1.07377e-07
-2.51963e-06
3.02915e-08
-2.02887e-06
-5.56625e-08
-1.48806e-06
-1.5385e-07
-8.93621e-07
-2.66915e-07
-2.42485e-07
-3.97235e-07
4.67773e-07
-5.46408e-07
1.23743e-06
-7.17969e-07
2.06878e-06
-9.11302e-07
2.96377e-06
-1.13112e-06
3.92022e-06
-1.37568e-06
4.93697e-06
-1.64936e-06
6.01046e-06
-1.94603e-06
7.13932e-06
-2.26961e-06
8.3184e-06
-2.60908e-06
9.5448e-06
-2.96968e-06
1.0814e-05
-3.33443e-06
1.21235e-05
-3.70973e-06
1.34664e-05
-4.0754e-06
1.48395e-05
-4.44008e-06
1.62353e-05
-4.78028e-06
1.7649e-05
-5.10732e-06
1.90726e-05
-5.39637e-06
2.05011e-05
-5.66137e-06
2.19252e-05
-5.87855e-06
2.33399e-05
-6.06447e-06
2.47356e-05
-6.19791e-06
2.61091e-05
-6.29628e-06
2.74503e-05
-6.34255e-06
2.8759e-05
-6.35395e-06
3.00242e-05
-6.31865e-06
3.12493e-05
-6.25206e-06
3.24234e-05
-6.14821e-06
3.35534e-05
-6.01863e-06
3.46281e-05
-5.86419e-06
3.56584e-05
-5.6904e-06
3.66326e-05
-5.5059e-06
3.7565e-05
-5.30791e-06
3.84433e-05
-5.11414e-06
3.92851e-05
-4.9113e-06
4.00768e-05
-4.7279e-06
4.08391e-05
-4.53788e-06
4.15567e-05
-4.38276e-06
4.2253e-05
-4.22128e-06
4.29107e-05
-4.11071e-06
4.35559e-05
-3.99196e-06
4.41683e-05
-3.94151e-06
4.47762e-05
-3.87947e-06
-3.91062e-06
-4.21666e-07
8.0448e-07
-9.61333e-07
1.36211e-06
-1.45363e-06
1.4929e-06
-1.88656e-06
1.51844e-06
-2.28155e-06
1.53018e-06
-2.64385e-06
1.5294e-06
-2.96899e-06
1.51167e-06
-3.25117e-06
1.47792e-06
-3.48706e-06
1.43069e-06
-3.67899e-06
1.37708e-06
-3.83009e-06
1.31957e-06
-3.94352e-06
1.25963e-06
-4.02236e-06
1.19851e-06
-4.06953e-06
1.13711e-06
-4.08771e-06
1.07607e-06
-4.07934e-06
1.0159e-06
-4.04659e-06
9.56961e-07
-3.99144e-06
8.99512e-07
-3.91547e-06
8.43443e-07
-3.82006e-06
7.889e-07
-3.70635e-06
7.35961e-07
-3.57525e-06
6.84597e-07
-3.42741e-06
6.34686e-07
-3.26325e-06
5.86142e-07
-3.08295e-06
5.38758e-07
-2.88646e-06
4.92267e-07
-2.67339e-06
4.46254e-07
-2.44328e-06
4.0065e-07
-2.19543e-06
3.55093e-07
-1.92884e-06
3.09082e-07
-1.64241e-06
2.622e-07
-1.33482e-06
2.13903e-07
-1.00457e-06
1.63552e-07
-6.49909e-07
1.10319e-07
-2.68709e-07
5.31193e-08
1.41759e-07
-9.35214e-09
5.81264e-07
-7.42039e-08
1.05314e-06
-1.46184e-07
1.55987e-06
-2.25457e-07
2.10382e-06
-3.12981e-07
2.6875e-06
-4.10247e-07
3.31317e-06
-5.18299e-07
3.98217e-06
-6.38707e-07
4.69854e-06
-7.72032e-07
5.46539e-06
-9.207e-07
6.28426e-06
-1.08578e-06
7.15704e-06
-1.27002e-06
8.08437e-06
-1.47374e-06
9.067e-06
-1.7006e-06
1.01047e-05
-1.94897e-06
1.11966e-05
-2.22307e-06
1.23401e-05
-2.51919e-06
1.35327e-05
-2.84195e-06
1.477e-05
-3.18332e-06
1.60484e-05
-3.54795e-06
1.73623e-05
-3.92301e-06
1.87065e-05
-4.31392e-06
2.00753e-05
-4.70318e-06
2.14627e-05
-5.09721e-06
2.28622e-05
-5.4749e-06
2.4267e-05
-5.84479e-06
2.56697e-05
-6.18302e-06
2.70632e-05
-6.50087e-06
2.84401e-05
-6.77324e-06
2.97937e-05
-7.01492e-06
3.11162e-05
-7.20107e-06
3.24025e-05
-7.35078e-06
3.36453e-05
-7.44069e-06
3.48424e-05
-7.49338e-06
3.5987e-05
-7.48721e-06
3.70804e-05
-7.44735e-06
3.8116e-05
-7.35427e-06
3.90985e-05
-7.23452e-06
4.00213e-05
-7.07099e-06
4.08926e-05
-6.88996e-06
4.17054e-05
-6.67698e-06
4.24713e-05
-6.45631e-06
4.3182e-05
-6.2166e-06
4.38524e-05
-5.97833e-06
4.44723e-05
-5.73399e-06
4.50597e-05
-5.49867e-06
4.56016e-05
-5.26986e-06
4.61194e-05
-5.05567e-06
4.65968e-05
-4.86015e-06
4.70583e-05
-4.68276e-06
4.74837e-05
-4.53608e-06
4.79007e-05
-4.40896e-06
4.82842e-05
-4.32501e-06
4.86648e-05
-4.26009e-06
-4.25844e-06
-2.66408e-07
1.07089e-06
-8.60075e-07
1.95578e-06
-1.47773e-06
2.11056e-06
-1.99436e-06
2.03507e-06
-2.38294e-06
1.91876e-06
-2.64655e-06
1.79301e-06
-2.80311e-06
1.66824e-06
-2.87315e-06
1.54796e-06
-2.87405e-06
1.43159e-06
-2.81708e-06
1.32011e-06
-2.71064e-06
1.21313e-06
-2.56155e-06
1.11054e-06
-2.37569e-06
1.01265e-06
-2.1581e-06
9.1952e-07
-1.91304e-06
8.31016e-07
-1.64413e-06
7.46992e-07
-1.35438e-06
6.67209e-07
-1.0464e-06
5.91534e-07
-7.21988e-07
5.19032e-07
-3.82866e-07
4.49779e-07
-3.03141e-08
3.83409e-07
3.34836e-07
3.19447e-07
7.11993e-07
2.57529e-07
1.10087e-06
1.97267e-07
1.50149e-06
1.38138e-07
1.91434e-06
7.94098e-08
2.34067e-06
1.99277e-08
2.78053e-06
-3.92079e-08
3.23491e-06
-9.92848e-08
3.70539e-06
-1.61405e-07
4.19348e-06
-2.25891e-07
4.70085e-06
-2.93466e-07
5.22927e-06
-3.64867e-07
5.78061e-06
-4.41018e-07
6.35643e-06
-5.22706e-07
6.95778e-06
-6.10695e-07
7.58912e-06
-7.05545e-07
8.25169e-06
-8.08756e-07
8.94762e-06
-9.21385e-07
9.67914e-06
-1.0445e-06
1.04482e-05
-1.17931e-06
1.12568e-05
-1.32692e-06
1.21069e-05
-1.48875e-06
1.30005e-05
-1.66564e-06
1.3939e-05
-1.85925e-06
1.49236e-05
-2.07032e-06
1.59546e-05
-2.30101e-06
1.70319e-05
-2.55112e-06
1.81545e-05
-2.82317e-06
1.93209e-05
-3.11533e-06
2.05281e-05
-3.43029e-06
2.17728e-05
-3.76392e-06
2.30499e-05
-4.11899e-06
2.43545e-05
-4.48794e-06
2.56797e-05
-4.87313e-06
2.70195e-05
-5.26282e-06
2.83653e-05
-5.65969e-06
2.97105e-05
-6.04848e-06
3.10462e-05
-6.43285e-06
3.23655e-05
-6.7942e-06
3.36592e-05
-7.13847e-06
3.49207e-05
-7.44458e-06
3.61418e-05
-7.72196e-06
3.73168e-05
-7.9482e-06
3.84393e-05
-8.1374e-06
3.95046e-05
-8.26646e-06
4.05091e-05
-8.35527e-06
4.14497e-05
-8.38121e-06
4.23263e-05
-8.37001e-06
4.31376e-05
-8.29855e-06
4.38868e-05
-8.19654e-06
4.4573e-05
-8.04047e-06
4.52022e-05
-7.86372e-06
4.57735e-05
-7.6423e-06
4.62955e-05
-7.41193e-06
4.67663e-05
-7.14779e-06
4.71967e-05
-6.88667e-06
4.7583e-05
-6.60293e-06
4.79379e-05
-6.33324e-06
4.82554e-05
-6.05149e-06
4.85499e-05
-5.79322e-06
4.88126e-05
-5.53249e-06
4.90598e-05
-5.30289e-06
4.92791e-05
-5.07947e-06
4.94893e-05
-4.893e-06
4.9674e-05
-4.7207e-06
4.98545e-05
-4.58945e-06
5.00093e-05
-4.47989e-06
5.01625e-05
-4.41326e-06
-4.37954e-06
-1.49101e-06
2.5619e-06
-1.9401e-06
2.40488e-06
-2.10429e-06
2.27474e-06
-2.12043e-06
2.05121e-06
-2.00856e-06
1.80688e-06
-1.79269e-06
1.57714e-06
-1.49211e-06
1.36765e-06
-1.12145e-06
1.1773e-06
-6.93238e-07
1.00337e-06
-2.20072e-07
8.46942e-07
2.88896e-07
7.04161e-07
8.25553e-07
5.73888e-07
1.38318e-06
4.55016e-07
1.95662e-06
3.46085e-07
2.54184e-06
2.45799e-07
3.13557e-06
1.53259e-07
3.73485e-06
6.7932e-08
4.337e-06
-1.06161e-08
4.94375e-06
-8.77236e-08
5.55239e-06
-1.58861e-07
6.1622e-06
-2.26402e-07
6.77313e-06
-2.91479e-07
7.38546e-06
-3.54797e-07
7.99976e-06
-4.17037e-07
8.61659e-06
-4.78696e-07
9.23639e-06
-5.40382e-07
9.86036e-06
-6.04044e-07
1.04908e-05
-6.6961e-07
1.11293e-05
-7.37817e-07
1.17775e-05
-8.09637e-07
1.24373e-05
-8.85699e-07
1.31108e-05
-9.66887e-07
1.37997e-05
-1.05386e-06
1.45063e-05
-1.14761e-06
1.52324e-05
-1.24878e-06
1.59802e-05
-1.3585e-06
1.67519e-05
-1.47727e-06
1.75495e-05
-1.6063e-06
1.83745e-05
-1.74638e-06
1.92288e-05
-1.8988e-06
2.01137e-05
-2.06425e-06
2.10307e-05
-2.24394e-06
2.19806e-05
-2.4386e-06
2.29642e-05
-2.64928e-06
2.39817e-05
-2.8767e-06
2.50329e-05
-3.12156e-06
2.61164e-05
-3.38451e-06
2.72308e-05
-3.66557e-06
2.83729e-05
-3.96522e-06
2.95398e-05
-4.28223e-06
3.07261e-05
-4.6166e-06
3.19274e-05
-4.96524e-06
3.3136e-05
-5.32757e-06
3.43464e-05
-5.69832e-06
3.55492e-05
-6.07592e-06
3.67377e-05
-6.45129e-06
3.79014e-05
-6.82341e-06
3.90339e-05
-7.18105e-06
4.0125e-05
-7.52387e-06
4.11689e-05
-7.83818e-06
4.21566e-05
-8.12615e-06
4.30843e-05
-8.37221e-06
4.39449e-05
-8.58262e-06
4.47371e-05
-8.7404e-06
4.54571e-05
-8.85734e-06
4.61057e-05
-8.91513e-06
4.66824e-05
-8.93192e-06
4.71893e-05
-8.88814e-06
4.763e-05
-8.81073e-06
4.80087e-05
-8.67726e-06
4.8331e-05
-8.51884e-06
4.86009e-05
-8.31033e-06
4.88259e-05
-8.08873e-06
4.90088e-05
-7.82523e-06
4.91587e-05
-7.56174e-06
4.92761e-05
-7.2652e-06
4.93709e-05
-6.98154e-06
4.94413e-05
-6.6733e-06
4.94978e-05
-6.38974e-06
4.95355e-05
-6.08918e-06
4.95659e-05
-5.82363e-06
4.9581e-05
-5.54758e-06
4.95934e-05
-5.3153e-06
4.9592e-05
-5.07803e-06
4.95907e-05
-4.89174e-06
4.95751e-05
-4.7051e-06
4.95608e-05
-4.57514e-06
4.95299e-05
-4.44897e-06
4.95003e-05
-4.38367e-06
-4.32172e-06
-8.93282e-07
3.45518e-06
-7.40762e-07
2.25236e-06
-2.53515e-07
1.78749e-06
4.53813e-07
1.34388e-06
1.31597e-06
9.44719e-07
2.26691e-06
6.262e-07
3.26021e-06
3.74352e-07
4.26833e-06
1.69188e-07
5.27846e-06
-6.75613e-09
6.27366e-06
-1.48257e-07
7.25834e-06
-2.80525e-07
8.22736e-06
-3.95132e-07
9.17765e-06
-4.95272e-07
1.01082e-05
-5.845e-07
1.10187e-05
-6.64672e-07
1.1909e-05
-7.37033e-07
1.27797e-05
-8.02724e-07
1.36321e-05
-8.63037e-07
1.4464e-05
-9.19658e-07
1.5278e-05
-9.72867e-07
1.60753e-05
-1.02363e-06
1.6857e-05
-1.0732e-06
1.76248e-05
-1.12259e-06
1.83804e-05
-1.17269e-06
1.91258e-05
-1.22409e-06
1.9863e-05
-1.27757e-06
2.0594e-05
-1.33501e-06
2.13212e-05
-1.39684e-06
2.20469e-05
-1.46356e-06
2.27734e-05
-1.53607e-06
2.35027e-05
-1.61504e-06
2.42372e-05
-1.70141e-06
2.49791e-05
-1.79569e-06
2.57302e-05
-1.89875e-06
2.64925e-05
-2.01109e-06
2.72677e-05
-2.13372e-06
2.80575e-05
-2.26705e-06
2.88633e-05
-2.41209e-06
2.96862e-05
-2.56925e-06
3.0527e-05
-2.73964e-06
3.13863e-05
-2.92353e-06
3.22643e-05
-3.12192e-06
3.31606e-05
-3.33488e-06
3.40746e-05
-3.56329e-06
3.50051e-05
-3.80718e-06
3.59504e-05
-4.06689e-06
3.69074e-05
-4.34156e-06
3.78733e-05
-4.63139e-06
3.88431e-05
-4.93506e-06
3.98126e-05
-5.25173e-06
4.07752e-05
-5.57916e-06
4.17252e-05
-5.91531e-06
4.26546e-05
-6.2569e-06
4.35566e-05
-6.60035e-06
4.4422e-05
-6.9413e-06
4.5245e-05
-7.27431e-06
4.60164e-05
-7.59483e-06
4.67316e-05
-7.89619e-06
4.73823e-05
-8.17462e-06
4.79665e-05
-8.42235e-06
4.84781e-05
-8.63777e-06
4.89182e-05
-8.81235e-06
4.92838e-05
-8.94816e-06
4.95792e-05
-9.0358e-06
4.98042e-05
-9.08236e-06
4.99661e-05
-9.07704e-06
5.00674e-05
-9.03318e-06
5.0117e-05
-8.93772e-06
5.01188e-05
-8.81257e-06
5.00821e-05
-8.64052e-06
5.0012e-05
-8.44874e-06
4.9916e-05
-8.21438e-06
4.97998e-05
-7.97255e-06
4.96682e-05
-7.69358e-06
4.95269e-05
-7.42052e-06
4.93774e-05
-7.11569e-06
4.92261e-05
-6.83022e-06
4.90704e-05
-6.51763e-06
4.8918e-05
-6.23728e-06
4.87623e-05
-5.93346e-06
4.86126e-05
-5.67392e-06
4.84585e-05
-5.39356e-06
4.83118e-05
-5.16852e-06
4.81581e-05
-4.92433e-06
4.80116e-05
-4.74526e-06
4.78542e-05
-4.54773e-06
4.77027e-05
-4.42365e-06
4.7535e-05
-4.28126e-06
4.73705e-05
-4.21919e-06
-4.1338e-06
3.64424e-06
-1.89057e-07
6.361e-06
-4.64404e-07
8.76267e-06
-6.14177e-07
1.08731e-05
-7.66571e-07
1.27353e-05
-9.17489e-07
1.44135e-05
-1.05196e-06
1.59523e-05
-1.16448e-06
1.73694e-05
-1.24787e-06
1.86881e-05
-1.32547e-06
1.99335e-05
-1.39361e-06
2.11056e-05
-1.45271e-06
2.22145e-05
-1.50396e-06
2.32675e-05
-1.54836e-06
2.427e-05
-1.58691e-06
2.52259e-05
-1.62056e-06
2.61389e-05
-1.65007e-06
2.70125e-05
-1.6763e-06
2.78495e-05
-1.70006e-06
2.86522e-05
-1.72239e-06
2.94237e-05
-1.74431e-06
3.01667e-05
-1.76667e-06
3.08839e-05
-1.79042e-06
3.15779e-05
-1.81656e-06
3.22512e-05
-1.846e-06
3.29067e-05
-1.87956e-06
3.35472e-05
-1.91813e-06
3.41749e-05
-1.96268e-06
3.47921e-05
-2.01402e-06
3.54012e-05
-2.07268e-06
3.60044e-05
-2.13931e-06
3.66039e-05
-2.21448e-06
3.72014e-05
-2.29897e-06
3.7799e-05
-2.39327e-06
3.83979e-05
-2.4977e-06
3.89996e-05
-2.61276e-06
3.9605e-05
-2.73913e-06
4.0215e-05
-2.87707e-06
4.08302e-05
-3.02721e-06
4.14507e-05
-3.18974e-06
4.20763e-05
-3.36526e-06
4.27066e-05
-3.5538e-06
4.33405e-05
-3.75585e-06
4.39768e-05
-3.97117e-06
4.46136e-05
-4.20007e-06
4.52483e-05
-4.4419e-06
4.5878e-05
-4.6966e-06
4.64993e-05
-4.96287e-06
4.71082e-05
-5.24025e-06
4.76999e-05
-5.52676e-06
4.82695e-05
-5.82133e-06
4.88113e-05
-6.12099e-06
4.93199e-05
-6.42391e-06
4.9789e-05
-6.72605e-06
5.02134e-05
-7.02477e-06
5.05872e-05
-7.31507e-06
5.09066e-05
-7.59367e-06
5.11668e-05
-7.85508e-06
5.13665e-05
-8.09584e-06
5.15026e-05
-8.31081e-06
5.15771e-05
-8.49679e-06
5.15893e-05
-8.64996e-06
5.15446e-05
-8.76771e-06
5.14448e-05
-8.84836e-06
5.12984e-05
-8.88937e-06
5.11081e-05
-8.8921e-06
5.08845e-05
-8.85344e-06
5.06305e-05
-8.7791e-06
5.03576e-05
-8.6649e-06
5.00671e-05
-8.52199e-06
4.97688e-05
-8.34223e-06
4.94627e-05
-8.14265e-06
4.91574e-05
-7.90911e-06
4.88512e-05
-7.66635e-06
4.85502e-05
-7.3926e-06
4.82519e-05
-7.12215e-06
4.79596e-05
-6.82341e-06
4.76713e-05
-6.54197e-06
4.73877e-05
-6.23397e-06
4.71083e-05
-5.95796e-06
4.68304e-05
-5.65554e-06
4.65568e-05
-5.40028e-06
4.62803e-05
-5.11704e-06
4.60081e-05
-4.89636e-06
4.57278e-05
-4.64406e-06
4.54522e-05
-4.46957e-06
4.5162e-05
-4.25757e-06
4.48763e-05
-4.13799e-06
4.45678e-05
-3.97268e-06
4.42614e-05
-3.91284e-06
-3.80191e-06
3.85872e-05
2.25036e-08
3.85499e-05
-4.27129e-07
3.86821e-05
-7.463e-07
3.88994e-05
-9.83941e-07
3.91641e-05
-1.18215e-06
3.94702e-05
-1.35804e-06
3.98188e-05
-1.51312e-06
4.02112e-05
-1.64027e-06
4.06268e-05
-1.74106e-06
4.10566e-05
-1.82339e-06
4.14929e-05
-1.88901e-06
4.19304e-05
-1.94152e-06
4.23652e-05
-1.98307e-06
4.27937e-05
-2.01541e-06
4.32133e-05
-2.04022e-06
4.36222e-05
-2.059e-06
4.40192e-05
-2.07322e-06
4.44034e-05
-2.08425e-06
4.47745e-05
-2.0935e-06
4.51325e-05
-2.10237e-06
4.5478e-05
-2.11214e-06
4.58116e-05
-2.12398e-06
4.61341e-05
-2.13906e-06
4.64465e-05
-2.15846e-06
4.67502e-05
-2.18319e-06
4.70462e-05
-2.21414e-06
4.73356e-05
-2.25214e-06
4.76196e-05
-2.29795e-06
4.78991e-05
-2.3522e-06
4.81752e-05
-2.41545e-06
4.84489e-05
-2.48819e-06
4.87209e-05
-2.57089e-06
4.89915e-05
-2.66391e-06
4.92614e-05
-2.76757e-06
4.95308e-05
-2.88214e-06
4.97996e-05
-3.00795e-06
5.00677e-05
-3.14522e-06
5.03347e-05
-3.29417e-06
5.05999e-05
-3.45491e-06
5.08622e-05
-3.62756e-06
5.11204e-05
-3.81208e-06
5.1373e-05
-4.00843e-06
5.16181e-05
-4.2163e-06
5.18535e-05
-4.43543e-06
5.20767e-05
-4.66513e-06
5.22849e-05
-4.90478e-06
5.24753e-05
-5.15321e-06
5.26444e-05
-5.40936e-06
5.27891e-05
-5.67145e-06
5.29057e-05
-5.93795e-06
5.2991e-05
-6.20632e-06
5.30416e-05
-6.47453e-06
5.30549e-05
-6.73928e-06
5.30282e-05
-6.99809e-06
5.29601e-05
-7.24696e-06
5.28496e-05
-7.48322e-06
5.2697e-05
-7.70244e-06
5.25034e-05
-7.90224e-06
5.22707e-05
-8.07814e-06
5.20024e-05
-8.22844e-06
5.17015e-05
-8.34912e-06
5.13738e-05
-8.43997e-06
5.10228e-05
-8.49741e-06
5.06551e-05
-8.52167e-06
5.02733e-05
-8.51025e-06
4.9884e-05
-8.46411e-06
4.94875e-05
-8.38265e-06
4.909e-05
-8.26743e-06
4.86885e-05
-8.12045e-06
4.82886e-05
-7.94232e-06
4.78845e-05
-7.73851e-06
4.74824e-05
-7.50701e-06
4.70743e-05
-7.25831e-06
4.66674e-05
-6.98567e-06
4.6252e-05
-6.70676e-06
4.58363e-05
-6.40773e-06
4.54104e-05
-6.11602e-06
4.49832e-05
-5.80677e-06
4.45452e-05
-5.51996e-06
4.41051e-05
-5.21553e-06
4.3655e-05
-4.95014e-06
4.32015e-05
-4.66357e-06
4.27395e-05
-4.43429e-06
4.22712e-05
-4.17581e-06
4.17965e-05
-3.9949e-06
4.13104e-05
-3.77144e-06
4.08206e-05
-3.64822e-06
4.03104e-05
-3.46245e-06
3.97989e-05
-3.40132e-06
-3.25845e-06
5.29744e-05
1.00555e-07
5.28763e-05
-3.29033e-07
5.28442e-05
-7.14211e-07
5.28647e-05
-1.0045e-06
5.29065e-05
-1.22391e-06
5.29502e-05
-1.40176e-06
5.29922e-05
-1.55507e-06
5.30402e-05
-1.68832e-06
5.30999e-05
-1.80072e-06
5.31688e-05
-1.89237e-06
5.32448e-05
-1.96497e-06
5.33245e-05
-2.0212e-06
5.34053e-05
-2.0639e-06
5.34855e-05
-2.09558e-06
5.35636e-05
-2.11837e-06
5.36387e-05
-2.13412e-06
5.37101e-05
-2.14454e-06
5.37771e-05
-2.15126e-06
5.38394e-05
-2.15585e-06
5.38969e-05
-2.15984e-06
5.39494e-05
-2.1647e-06
5.39972e-05
-2.17178e-06
5.40405e-05
-2.18235e-06
5.40796e-05
-2.19757e-06
5.41149e-05
-2.21849e-06
5.41468e-05
-2.24601e-06
5.41756e-05
-2.28094e-06
5.42016e-05
-2.32396e-06
5.42251e-05
-2.3757e-06
5.42463e-05
-2.43666e-06
5.42654e-05
-2.50726e-06
5.42823e-05
-2.58783e-06
5.4297e-05
-2.67864e-06
5.43094e-05
-2.77993e-06
5.43191e-05
-2.89189e-06
5.43259e-05
-3.01466e-06
5.4329e-05
-3.14835e-06
5.43278e-05
-3.29303e-06
5.43216e-05
-3.4487e-06
5.43094e-05
-3.61529e-06
5.429e-05
-3.79269e-06
5.42622e-05
-3.98066e-06
5.42248e-05
-4.17887e-06
5.41762e-05
-4.38682e-06
5.41149e-05
-4.60391e-06
5.40395e-05
-4.8293e-06
5.39482e-05
-5.06199e-06
5.38396e-05
-5.30074e-06
5.37122e-05
-5.54405e-06
5.35645e-05
-5.79022e-06
5.33954e-05
-6.03721e-06
5.32037e-05
-6.28282e-06
5.2989e-05
-6.52464e-06
5.27509e-05
-6.75994e-06
5.24896e-05
-6.98566e-06
5.22053e-05
-7.19893e-06
5.18992e-05
-7.39639e-06
5.15722e-05
-7.57524e-06
5.12261e-05
-7.73198e-06
5.08618e-05
-7.86418e-06
5.04813e-05
-7.96856e-06
5.00849e-05
-8.04364e-06
4.96738e-05
-8.08627e-06
4.92479e-05
-8.09577e-06
4.88068e-05
-8.06915e-06
4.83499e-05
-8.0072e-06
4.78752e-05
-7.90799e-06
4.73823e-05
-7.77447e-06
4.68679e-05
-7.60606e-06
4.63328e-05
-7.40721e-06
4.57724e-05
-7.17817e-06
4.51901e-05
-6.92469e-06
4.45812e-05
-6.64938e-06
4.39525e-05
-6.35702e-06
4.3298e-05
-6.05224e-06
4.26283e-05
-5.73806e-06
4.19354e-05
-5.42304e-06
4.12337e-05
-5.10514e-06
4.05125e-05
-4.79876e-06
3.979e-05
-4.49299e-06
3.90517e-05
-4.21184e-06
3.83184e-05
-3.93025e-06
3.7572e-05
-3.68787e-06
3.68341e-05
-3.43798e-06
3.60847e-05
-3.24545e-06
3.53434e-05
-3.03022e-06
3.45924e-05
-2.89717e-06
3.38442e-05
-2.71426e-06
3.30904e-05
-2.64755e-06
-2.48657e-06
5.43138e-05
-2.18411e-07
5.44978e-05
-5.13057e-07
5.46027e-05
-8.19072e-07
5.46902e-05
-1.09201e-06
5.47774e-05
-1.31109e-06
5.48584e-05