/*--------------------------------*- C++ -*----------------------------------*\
| =========                 |                                                 |
| \\      /  F ield         | OpenFOAM: The Open Source CFD Toolbox           |
|  \\    /   O peration     | Version:  2306                                  |
|   \\  /    A nd           | Website:  www.openfoam.com                      |
|    \\/     M anipulation  |                                                 |
\*---------------------------------------------------------------------------*/
FoamFile
{
    version     2.0;
    format      ascii;
    arch        "LSB;label=32;scalar=64";
    class       volVectorField;
    location    "9";
    object      U;
}
// * * * * * * * * * * * * * * * * * * * * * * * * * * * * * * * * * * * * * //

dimensions      [0 1 -1 0 0 0 0];

internalField   nonuniform List<vector> 
1900
(
(0.984273 0.0072912 0)
(0.961758 0.0216821 0)
(0.95232 0.0181808 0)
(0.918694 0.0253026 0)
(0.903393 0.0154505 0)
(0.863042 0.0257489 0)
(0.852208 0.0116156 0)
(0.811893 0.0267308 0)
(0.809532 0.00459449 0)
(0.770314 0.025997 0)
(1.00256 0.0115603 0)
(1.00446 0.0258641 0)
(1.01943 0.028971 0)
(1.02197 0.0304655 0)
(1.03486 0.0280196 0)
(1.03394 0.0284387 0)
(1.04401 0.0258133 0)
(1.04273 0.0251347 0)
(1.05111 0.0207268 0)
(1.05216 0.0162904 0)
(1.00048 0.00388892 0)
(1.00419 0.0111598 0)
(1.01255 0.0140088 0)
(1.02112 0.0158011 0)
(1.03153 0.0147341 0)
(1.04052 0.0144487 0)
(1.04996 0.0124182 0)
(1.05836 0.0109871 0)
(1.06683 0.00738952 0)
(1.07465 0.0032563 0)
(1.00007 0.00207929 0)
(1.00313 0.00584919 0)
(1.00888 0.00806623 0)
(1.01648 0.00905199 0)
(1.02527 0.00858016 0)
(1.0343 0.00748951 0)
(1.04323 0.00572106 0)
(1.05178 0.0035723 0)
(1.05995 0.000763388 0)
(1.06762 -0.00273024 0)
(1.00003 0.00042681 0)
(1.00261 0.00117954 0)
(1.00738 0.00144737 0)
(1.01402 0.00117322 0)
(1.02191 0.000282105 0)
(1.03035 -0.00107182 0)
(1.03879 -0.0028542 0)
(1.04691 -0.00503997 0)
(1.05459 -0.00767708 0)
(1.06174 -0.0108235 0)
(1.00003 -0.00105823 0)
(1.00255 -0.00301935 0)
(1.0072 -0.00473566 0)
(1.01366 -0.00616711 0)
(1.02133 -0.0074592 0)
(1.02949 -0.00881173 0)
(1.03759 -0.0104104 0)
(1.04534 -0.0123645 0)
(1.05261 -0.0147145 0)
(1.05939 -0.0174306 0)
(1.00003 -0.00270816 0)
(1.00303 -0.00742461 0)
(1.00836 -0.0110452 0)
(1.01546 -0.0134748 0)
(1.02347 -0.0150908 0)
(1.03164 -0.0164418 0)
(1.03952 -0.0179323 0)
(1.04692 -0.0197399 0)
(1.05385 -0.0218572 0)
(1.06035 -0.0241941 0)
(1.00004 -0.00476689 0)
(1.00441 -0.0122258 0)
(1.01138 -0.0169038 0)
(1.0198 -0.0193278 0)
(1.02841 -0.0206459 0)
(1.03642 -0.0218062 0)
(1.04363 -0.023257 0)
(1.05011 -0.0250247 0)
(1.056 -0.0269677 0)
(1.06133 -0.0289521 0)
(1.00006 -0.0121171 0)
(1.00722 -0.0259463 0)
(1.01559 -0.0314196 0)
(1.02288 -0.0325629 0)
(1.02795 -0.0326401 0)
(1.03076 -0.0330071 0)
(1.03179 -0.0337759 0)
(1.0315 -0.0346828 0)
(1.03011 -0.0355123 0)
(1.02765 -0.0362043 0)
(0.980777 -0.009163 0)
(0.964588 -0.0188198 0)
(0.945466 -0.0220429 0)
(0.920806 -0.0221802 0)
(0.892028 -0.0217315 0)
(0.861731 -0.021567 0)
(0.831515 -0.0215948 0)
(0.801857 -0.0215792 0)
(0.772693 -0.0213961 0)
(0.743779 -0.0210608 0)
(0.000207206 -0.00011017 0)
(0.000341563 -2.06241e-05 0)
(7.27304e-05 2.89644e-05 0)
(-0.000418014 5.82447e-05 0)
(-0.00107248 7.63046e-05 0)
(-0.00184798 9.39574e-05 0)
(-0.0027314 0.000114649 0)
(-0.00371798 0.00013731 0)
(-0.00480261 0.000160719 0)
(-0.00597899 0.000184164 0)
(-0.00724006 0.000207214 0)
(-0.0085783 0.000229566 0)
(-0.00998602 0.000250975 0)
(-0.0114556 0.000271242 0)
(-0.0129797 0.000290221 0)
(-0.0145512 0.000307825 0)
(-0.0161634 0.000324016 0)
(-0.0178102 0.000338776 0)
(-0.0194858 0.00035208 0)
(-0.0211849 0.000363934 0)
(-0.0229032 0.000374375 0)
(-0.024637 0.000383466 0)
(-0.0263834 0.000391305 0)
(-0.0281408 0.000398005 0)
(-0.0299085 0.000403693 0)
(-0.0316868 0.000408524 0)
(-0.0334774 0.0004127 0)
(-0.0352831 0.00041647 0)
(-0.0371085 0.000420099 0)
(-0.0389592 0.000423864 0)
(-0.0408425 0.000428028 0)
(-0.0427669 0.000432787 0)
(-0.0447422 0.000438237 0)
(-0.0467793 0.00044446 0)
(-0.0488906 0.000451738 0)
(-0.0510904 0.000460721 0)
(-0.0533953 0.000472482 0)
(-0.0558249 0.000488703 0)
(-0.0584021 0.000512104 0)
(-0.0611542 0.000546829 0)
(-0.0641142 0.000599107 0)
(-0.0673222 0.000678024 0)
(-0.0708273 0.000795817 0)
(-0.074688 0.000966874 0)
(-0.0789692 0.00120552 0)
(-0.0837371 0.00152331 0)
(-0.0890495 0.00192542 0)
(-0.0949454 0.00240767 0)
(-0.101434 0.00295379 0)
(-0.108481 0.00353265 0)
(-0.115995 0.00409641 0)
(-0.123819 0.00458828 0)
(-0.131736 0.00495276 0)
(-0.13948 0.00514684 0)
(-0.146747 0.00514098 0)
(-0.153208 0.00492911 0)
(-0.158558 0.00454553 0)
(-0.162555 0.00405074 0)
(-0.164962 0.003425 0)
(-0.165559 0.00265214 0)
(-0.164244 0.00173009 0)
(-0.160991 0.000738919 0)
(-0.155733 -0.000297521 0)
(-0.148533 -0.00132765 0)
(-0.139439 -0.00233195 0)
(-0.128613 -0.00327391 0)
(-0.116171 -0.00413214 0)
(-0.1023 -0.00489497 0)
(-0.0872379 -0.00552209 0)
(-0.0710451 -0.00608423 0)
(-0.0542339 -0.0064335 0)
(-0.0365478 -0.00674666 0)
(-0.0189259 -0.00686933 0)
(-0.000512202 -0.00696685 0)
(0.0171335 -0.00689143 0)
(0.0356081 -0.00684632 0)
(0.0525644 -0.00659929 0)
(0.0705904 -0.00645088 0)
(0.0863617 -0.00609094 0)
(0.103631 -0.00589935 0)
(0.117865 -0.00548279 0)
(0.134313 -0.0053085 0)
(0.146801 -0.00489222 0)
(0.162652 -0.00478945 0)
(0.17324 -0.00443036 0)
(0.189137 -0.00444792 0)
(0.197513 -0.00419645 0)
(0.214858 -0.00442521 0)
(0.22006 -0.00429905 0)
(0.241673 -0.00517041 0)
(5.86463e-05 -0.000513492 0)
(-0.000538611 0.000153978 0)
(-0.00205071 0.000728581 0)
(-0.00398224 0.00113296 0)
(-0.00629867 0.00141209 0)
(-0.00892711 0.00163456 0)
(-0.0118301 0.00183632 0)
(-0.0149792 0.00202516 0)
(-0.0183449 0.00220096 0)
(-0.0218991 0.00236266 0)
(-0.0256148 0.00250942 0)
(-0.0294659 0.00264094 0)
(-0.0334278 0.00275741 0)
(-0.0374777 0.00285932 0)
(-0.0415947 0.00294736 0)
(-0.0457604 0.0030224 0)
(-0.0499584 0.00308542 0)
(-0.054175 0.00313734 0)
(-0.0583984 0.00317912 0)
(-0.0626194 0.00321209 0)
(-0.0668313 0.00323785 0)
(-0.07103 0.00325817 0)
(-0.0752139 0.00327495 0)
(-0.0793841 0.00329024 0)
(-0.0835442 0.00330613 0)
(-0.0877003 0.00332488 0)
(-0.0918608 0.00334899 0)
(-0.0960369 0.00338111 0)
(-0.100242 0.00342398 0)
(-0.104492 0.00348036 0)
(-0.108804 0.00355296 0)
(-0.113197 0.00364436 0)
(-0.117692 0.00375696 0)
(-0.122309 0.00389337 0)
(-0.127069 0.00405681 0)
(-0.131993 0.00425132 0)
(-0.137101 0.00448127 0)
(-0.142413 0.00475139 0)
(-0.147942 0.0050672 0)
(-0.153699 0.00543474 0)
(-0.159686 0.0058606 0)
(-0.165898 0.00635188 0)
(-0.172317 0.00691495 0)
(-0.178912 0.00755184 0)
(-0.185636 0.00825538 0)
(-0.192415 0.00900584 0)
(-0.199149 0.00976782 0)
(-0.20571 0.0104913 0)
(-0.211942 0.0111149 0)
(-0.217669 0.0115688 0)
(-0.222689 0.0117711 0)
(-0.226781 0.0116463 0)
(-0.229715 0.0111375 0)
(-0.231273 0.0102239 0)
(-0.231233 0.00888834 0)
(-0.229379 0.00711133 0)
(-0.225539 0.00490517 0)
(-0.219735 0.00235034 0)
(-0.211802 -0.000452158 0)
(-0.201806 -0.00342999 0)
(-0.189605 -0.00652772 0)
(-0.17537 -0.00962411 0)
(-0.159011 -0.0126941 0)
(-0.140836 -0.015614 0)
(-0.120771 -0.0183408 0)
(-0.0991928 -0.0208069 0)
(-0.0761509 -0.0230062 0)
(-0.0518245 -0.0249428 0)
(-0.0267927 -0.0265325 0)
(-0.00039952 -0.0278641 0)
(0.0256863 -0.0287662 0)
(0.0534846 -0.029494 0)
(0.0795242 -0.0297484 0)
(0.108046 -0.0299397 0)
(0.133203 -0.029614 0)
(0.161917 -0.0293954 0)
(0.185496 -0.0286105 0)
(0.214031 -0.0280999 0)
(0.235436 -0.0269963 0)
(0.263695 -0.026346 0)
(0.282425 -0.0250695 0)
(0.310599 -0.0244364 0)
(0.326231 -0.0231284 0)
(0.354821 -0.0226701 0)
(0.366982 -0.0214621 0)
(0.396819 -0.0213466 0)
(0.405164 -0.0203617 0)
(0.43738 -0.0208141 0)
(0.441605 -0.0202008 0)
(0.477386 -0.0216511 0)
(-0.000164407 0.00043765 0)
(-0.0019674 0.00231947 0)
(-0.00547128 0.0035454 0)
(-0.00944995 0.00436571 0)
(-0.0138679 0.00500571 0)
(-0.0186232 0.00557233 0)
(-0.0236735 0.00609122 0)
(-0.0289786 0.00656205 0)
(-0.0344842 0.00698003 0)
(-0.0401377 0.00734335 0)
(-0.0458912 0.00765187 0)
(-0.0517016 0.00790757 0)
(-0.0575314 0.00811387 0)
(-0.0633487 0.0082749 0)
(-0.0691271 0.00839518 0)
(-0.0748453 0.00847953 0)
(-0.0804865 0.00853287 0)
(-0.0860382 0.00856018 0)
(-0.091491 0.00856653 0)
(-0.0968387 0.00855692 0)
(-0.102078 0.00853635 0)
(-0.10721 0.00850987 0)
(-0.112237 0.00848255 0)
(-0.117162 0.0084594 0)
(-0.121991 0.00844526 0)
(-0.126733 0.00844495 0)
(-0.131394 0.00846337 0)
(-0.135983 0.00850539 0)
(-0.140509 0.00857547 0)
(-0.144978 0.00867758 0)
(-0.149399 0.00881505 0)
(-0.153776 0.00899028 0)
(-0.158111 0.00920459 0)
(-0.162403 0.00945829 0)
(-0.166644 0.00975119 0)
(-0.170826 0.0100828 0)
(-0.174933 0.0104513 0)
(-0.178943 0.0108522 0)
(-0.182826 0.0112796 0)
(-0.186543 0.0117256 0)
(-0.190043 0.0121805 0)
(-0.193266 0.0126334 0)
(-0.196139 0.0130728 0)
(-0.19858 0.0134837 0)
(-0.200493 0.013839 0)
(-0.201772 0.0141014 0)
(-0.202293 0.0142214 0)
(-0.201923 0.0141406 0)
(-0.200523 0.0137936 0)
(-0.197972 0.0131237 0)
(-0.194131 0.0120457 0)
(-0.188884 0.0104891 0)
(-0.18209 0.00838989 0)
(-0.173706 0.00573673 0)
(-0.163688 0.0025289 0)
(-0.152005 -0.00116054 0)
(-0.138574 -0.00535661 0)
(-0.123547 -0.00996155 0)
(-0.10656 -0.0148778 0)
(-0.0881298 -0.0199123 0)
(-0.0678728 -0.0250032 0)
(-0.0464466 -0.0299629 0)
(-0.0233149 -0.0348087 0)
(0.000744892 -0.0393177 0)
(0.0262573 -0.0435146 0)
(0.0526023 -0.0472277 0)
(0.0796449 -0.0505108 0)
(0.107705 -0.0532635 0)
(0.135362 -0.0555292 0)
(0.164683 -0.0572739 0)
(0.192096 -0.0584331 0)
(0.22218 -0.05924 0)
(0.24858 -0.0593781 0)
(0.278927 -0.0593503 0)
(0.303629 -0.0586078 0)
(0.333881 -0.0579142 0)
(0.35633 -0.0564876 0)
(0.386302 -0.0553447 0)
(0.406055 -0.0534559 0)
(0.435767 -0.0521068 0)
(0.452498 -0.0499852 0)
(0.482179 -0.0486774 0)
(0.495662 -0.0465412 0)
(0.52574 -0.0455185 0)
(0.535843 -0.0435723 0)
(0.566927 -0.0430841 0)
(0.573589 -0.0415371 0)
(0.606433 -0.0418704 0)
(0.609635 -0.0409758 0)
(0.645034 -0.0424706 0)
(-0.000924436 0.0012447 0)
(-0.0048116 0.00515009 0)
(-0.0107449 0.00763533 0)
(-0.0168256 0.00930024 0)
(-0.0232304 0.0105372 0)
(-0.029908 0.0115191 0)
(-0.0367723 0.0123187 0)
(-0.0437256 0.0129727 0)
(-0.0506772 0.0134951 0)
(-0.0575549 0.0138977 0)
(-0.0643034 0.0141927 0)
(-0.0708787 0.014392 0)
(-0.0772487 0.014507 0)
(-0.0833909 0.0145493 0)
(-0.0892902 0.0145298 0)
(-0.0949376 0.0144591 0)
(-0.100329 0.014347 0)
(-0.105463 0.0142025 0)
(-0.110341 0.0140338 0)
(-0.114968 0.0138489 0)
(-0.119349 0.013655 0)
(-0.123489 0.0134589 0)
(-0.127395 0.0132669 0)
(-0.131071 0.0130848 0)
(-0.134524 0.0129173 0)
(-0.137757 0.0127688 0)
(-0.140771 0.0126432 0)
(-0.143567 0.0125441 0)
(-0.146144 0.0124739 0)
(-0.148497 0.0124339 0)
(-0.150617 0.012424 0)
(-0.152494 0.0124425 0)
(-0.154114 0.0124861 0)
(-0.155455 0.0125493 0)
(-0.156492 0.0126256 0)
(-0.157196 0.0127091 0)
(-0.157534 0.0127937 0)
(-0.157465 0.012867 0)
(-0.156945 0.0129158 0)
(-0.15592 0.0129248 0)
(-0.154329 0.0128767 0)
(-0.1521 0.0127541 0)
(-0.149153 0.0125402 0)
(-0.145419 0.012222 0)
(-0.140807 0.0117616 0)
(-0.135234 0.0111139 0)
(-0.128601 0.0102252 0)
(-0.120823 0.00904158 0)
(-0.111776 0.00746657 0)
(-0.101475 0.00545524 0)
(-0.0898028 0.00294635 0)
(-0.076797 -7.18373e-05 0)
(-0.0623136 -0.00367487 0)
(-0.0465446 -0.00784897 0)
(-0.0292359 -0.0126524 0)
(-0.0107007 -0.0179333 0)
(0.00946259 -0.0236796 0)
(0.0304522 -0.0296143 0)
(0.0531888 -0.0358029 0)
(0.0764749 -0.0419927 0)
(0.101483 -0.0482503 0)
(0.12675 -0.0542483 0)
(0.153561 -0.06011 0)
(0.180486 -0.0654473 0)
(0.208484 -0.0704337 0)
(0.236676 -0.0747476 0)
(0.265198 -0.0785771 0)
(0.294207 -0.0816585 0)
(0.322502 -0.0841247 0)
(0.351856 -0.0858771 0)
(0.379208 -0.0869401 0)
(0.408473 -0.0874268 0)
(0.434235 -0.0871964 0)
(0.463059 -0.0865871 0)
(0.486678 -0.0852628 0)
(0.514842 -0.0838067 0)
(0.535897 -0.0816543 0)
(0.563336 -0.0796519 0)
(0.581534 -0.0769672 0)
(0.608344 -0.0747395 0)
(0.623509 -0.0718228 0)
(0.649949 -0.0696877 0)
(0.662006 -0.0668233 0)
(0.688476 -0.0650839 0)
(0.697423 -0.0625362 0)
(0.724446 -0.0614871 0)
(0.730322 -0.0595147 0)
(0.758517 -0.0594611 0)
(0.761367 -0.0583366 0)
(0.791408 -0.0595976 0)
(-0.00128174 0.00695437 0)
(-0.00687853 0.0138285 0)
(-0.0155099 0.0164653 0)
(-0.0240091 0.0176261 0)
(-0.0325148 0.0184585 0)
(-0.0407804 0.0192374 0)
(-0.0486776 0.0199137 0)
(-0.0561653 0.0204105 0)
(-0.0632139 0.0207084 0)
(-0.0697915 0.0208336 0)
(-0.0758809 0.0208144 0)
(-0.0814771 0.0206759 0)
(-0.0865846 0.0204404 0)
(-0.0912145 0.0201273 0)
(-0.0953823 0.0197534 0)
(-0.0991062 0.0193334 0)
(-0.102406 0.01888 0)
(-0.105301 0.0184033 0)
(-0.107809 0.0179113 0)
(-0.109948 0.0174121 0)
(-0.111732 0.016913 0)
(-0.113175 0.0164199 0)
(-0.114289 0.0159377 0)
(-0.115082 0.0154706 0)
(-0.115559 0.0150211 0)
(-0.115722 0.0145908 0)
(-0.11557 0.0141801 0)
(-0.115099 0.0137906 0)
(-0.1143 0.0134212 0)
(-0.113161 0.0130694 0)
(-0.111668 0.0127313 0)
(-0.109801 0.0124012 0)
(-0.107539 0.0120716 0)
(-0.104853 0.0117329 0)
(-0.101708 0.0113745 0)
(-0.0980678 0.0109887 0)
(-0.0939026 0.0105736 0)
(-0.0891628 0.0101061 0)
(-0.083806 0.00956683 0)
(-0.0777827 0.008937 0)
(-0.0710327 0.00819398 0)
(-0.0634929 0.00731413 0)
(-0.0550713 0.00625995 0)
(-0.0457611 0.00500049 0)
(-0.0354658 0.00350733 0)
(-0.0241453 0.00175804 0)
(-0.0116772 -0.000303156 0)
(0.00188445 -0.00271014 0)
(0.0167122 -0.00554396 0)
(0.0326213 -0.00883725 0)
(0.0499475 -0.012685 0)
(0.0683188 -0.0170554 0)
(0.0882268 -0.0220216 0)
(0.108923 -0.0274763 0)
(0.131258 -0.0334706 0)
(0.154038 -0.0398238 0)
(0.17857 -0.0466425 0)
(0.203167 -0.0535942 0)
(0.229531 -0.0607948 0)
(0.255622 -0.0678635 0)
(0.283419 -0.0749584 0)
(0.310636 -0.0816321 0)
(0.339361 -0.0880974 0)
(0.367273 -0.0938787 0)
(0.396336 -0.0992365 0)
(0.424465 -0.103728 0)
(0.453226 -0.107643 0)
(0.481091 -0.110603 0)
(0.508898 -0.112894 0)
(0.536057 -0.114244 0)
(0.562313 -0.114902 0)
(0.58843 -0.114732 0)
(0.612637 -0.113902 0)
(0.637504 -0.112433 0)
(0.659287 -0.110369 0)
(0.682841 -0.107913 0)
(0.701954 -0.104946 0)
(0.724274 -0.101876 0)
(0.740588 -0.0983692 0)
(0.761881 -0.0950701 0)
(0.775362 -0.091385 0)
(0.795948 -0.0882317 0)
(0.806626 -0.0847054 0)
(0.826918 -0.0820464 0)
(0.834857 -0.0789856 0)
(0.855336 -0.0771449 0)
(0.860596 -0.0748317 0)
(0.881792 -0.0741205 0)
(0.884392 -0.0728261 0)
(0.906864 -0.0735589 0)
(-0.00367103 0.00684231 0)
(-0.0134793 0.017299 0)
(-0.0245202 0.0220276 0)
(-0.0336285 0.0246877 0)
(-0.0418815 0.0262742 0)
(-0.049476 0.0271118 0)
(-0.0563734 0.0273793 0)
(-0.0624505 0.0272622 0)
(-0.0676173 0.0268967 0)
(-0.0718785 0.0263551 0)
(-0.0752927 0.0256836 0)
(-0.077922 0.0249159 0)
(-0.0798295 0.0240803 0)
(-0.0810755 0.0231994 0)
(-0.0817159 0.0222909 0)
(-0.0818018 0.0213689 0)
(-0.0813802 0.0204449 0)
(-0.080493 0.0195273 0)
(-0.0791735 0.0186187 0)
(-0.0774528 0.0177246 0)
(-0.075356 0.0168492 0)
(-0.0729036 0.0159947 0)
(-0.0701108 0.0151616 0)
(-0.066989 0.0143504 0)
(-0.0635445 0.0135591 0)
(-0.0597781 0.0127849 0)
(-0.0556824 0.0120235 0)
(-0.0512535 0.0112761 0)
(-0.0464783 0.0105392 0)
(-0.0413387 0.00980541 0)
(-0.0358149 0.00906764 0)
(-0.0298823 0.0083174 0)
(-0.0235141 0.00754481 0)
(-0.0166775 0.00673721 0)
(-0.00932889 0.00587807 0)
(-0.00140748 0.00494228 0)
(0.00706542 0.00390727 0)
(0.0161649 0.00277121 0)
(0.0259402 0.0015193 0)
(0.0364247 0.000128806 0)
(0.047692 -0.00143058 0)
(0.0597498 -0.00317844 0)
(0.0727139 -0.00514699 0)
(0.0865232 -0.00736585 0)
(0.101365 -0.00988728 0)
(0.117141 -0.0127284 0)
(0.134115 -0.0159401 0)
(0.151989 -0.0195443 0)
(0.171214 -0.0236128 0)
(0.191224 -0.0281123 0)
(0.21273 -0.0331324 0)
(0.234813 -0.038615 0)
(0.25851 -0.0446631 0)
(0.282467 -0.0511226 0)
(0.308099 -0.0580987 0)
(0.333607 -0.0653336 0)
(0.360799 -0.0729502 0)
(0.38745 -0.0805852 0)
(0.415731 -0.088386 0)
(0.44304 -0.0959198 0)
(0.471873 -0.103376 0)
(0.499309 -0.110269 0)
(0.528098 -0.116839 0)
(0.555099 -0.122577 0)
(0.58322 -0.127784 0)
(0.609238 -0.13196 0)
(0.636089 -0.13547 0)
(0.660649 -0.137847 0)
(0.685712 -0.139508 0)
(0.708469 -0.140042 0)
(0.731355 -0.139893 0)
(0.752135 -0.138721 0)
(0.772604 -0.136967 0)
(0.791393 -0.13437 0)
(0.809335 -0.131336 0)
(0.826261 -0.127696 0)
(0.841675 -0.123782 0)
(0.856979 -0.119531 0)
(0.869937 -0.115159 0)
(0.88394 -0.110732 0)
(0.894559 -0.106308 0)
(0.907637 -0.102113 0)
(0.916043 -0.0980069 0)
(0.928602 -0.0944102 0)
(0.934902 -0.0909419 0)
(0.947363 -0.088269 0)
(0.951615 -0.0857185 0)
(0.964401 -0.0842629 0)
(0.966572 -0.0828775 0)
(0.9801 -0.0829124 0)
(-0.0017995 0.0288066 0)
(-0.00957067 0.0405639 0)
(-0.0240373 0.040502 0)
(-0.0354138 0.0380671 0)
(-0.0444243 0.0361977 0)
(-0.0508271 0.03469 0)
(-0.0549264 0.0331965 0)
(-0.0571236 0.0316427 0)
(-0.0577812 0.0300377 0)
(-0.0571804 0.0284075 0)
(-0.0555107 0.0267727 0)
(-0.0529237 0.0251486 0)
(-0.0495471 0.023553 0)
(-0.0454898 0.0219972 0)
(-0.0408434 0.0204876 0)
(-0.0356865 0.0190285 0)
(-0.0300846 0.0176216 0)
(-0.0241011 0.0162669 0)
(-0.0177649 0.0149499 0)
(-0.0111217 0.0136756 0)
(-0.0041991 0.012445 0)
(0.0029819 0.011255 0)
(0.0104073 0.0101013 0)
(0.018068 0.00898023 0)
(0.0259623 0.0078874 0)
(0.0340912 0.00681635 0)
(0.0424861 0.00575155 0)
(0.0511423 0.00467491 0)
(0.060076 0.00357882 0)
(0.0693188 0.00246006 0)
(0.0788968 0.00131174 0)
(0.0888423 0.000121281 0)
(0.0991884 -0.00112542 0)
(0.109973 -0.00244448 0)
(0.121229 -0.00385243 0)
(0.133007 -0.00536467 0)
(0.145319 -0.00700882 0)
(0.158227 -0.00880599 0)
(0.171811 -0.0107747 0)
(0.186052 -0.0129342 0)
(0.201072 -0.0153134 0)
(0.216797 -0.0179335 0)
(0.233422 -0.0208287 0)
(0.250779 -0.0240076 0)
(0.269166 -0.0275106 0)
(0.288272 -0.0313536 0)
(0.308545 -0.0355935 0)
(0.329454 -0.040224 0)
(0.351638 -0.0453132 0)
(0.374298 -0.0508184 0)
(0.398302 -0.0568193 0)
(0.422532 -0.0632225 0)
(0.448122 -0.0701136 0)
(0.473597 -0.0773212 0)
(0.500389 -0.0849292 0)
(0.526639 -0.0926784 0)
(0.554111 -0.10066 0)
(0.58055 -0.108535 0)
(0.608086 -0.116417 0)
(0.634065 -0.123899 0)
(0.661007 -0.131142 0)
(0.685873 -0.137688 0)
(0.711579 -0.143763 0)
(0.734729 -0.148881 0)
(0.758629 -0.153346 0)
(0.779578 -0.156665 0)
(0.801232 -0.159233 0)
(0.819663 -0.160563 0)
(0.838809 -0.161139 0)
(0.854612 -0.160493 0)
(0.871184 -0.159187 0)
(0.884447 -0.156771 0)
(0.898542 -0.153861 0)
(0.909503 -0.150028 0)
(0.921321 -0.145912 0)
(0.930311 -0.1411 0)
(0.940106 -0.13623 0)
(0.947498 -0.130909 0)
(0.955531 -0.125743 0)
(0.961706 -0.120364 0)
(0.968212 -0.115321 0)
(0.973532 -0.110289 0)
(0.978695 -0.105736 0)
(0.983488 -0.101401 0)
(0.987426 -0.0976475 0)
(0.991987 -0.0943091 0)
(0.994734 -0.0916125 0)
(0.99932 -0.0895248 0)
(1.0008 -0.0880965 0)
(1.00564 -0.0874732 0)
(-0.0195781 0.00828306 0)
(-0.0377968 0.0318961 0)
(-0.040998 0.0392099 0)
(-0.0431049 0.0399895 0)
(-0.0420131 0.0383205 0)
(-0.0385938 0.0355605 0)
(-0.0333045 0.0324954 0)
(-0.0264936 0.0294582 0)
(-0.0184056 0.0265415 0)
(-0.00934502 0.0238203 0)
(0.000524726 0.0212659 0)
(0.0110195 0.0188616 0)
(0.0219908 0.0166026 0)
(0.033323 0.0144821 0)
(0.0449294 0.0124895 0)
(0.0567319 0.0106161 0)
(0.0686828 0.00885431 0)
(0.0806825 0.0072048 0)
(0.0927952 0.00566586 0)
(0.104952 0.0042121 0)
(0.117137 0.00281741 0)
(0.129344 0.00146598 0)
(0.141577 0.000148118 0)
(0.153838 -0.00114662 0)
(0.166148 -0.00242917 0)
(0.178501 -0.00371079 0)
(0.190939 -0.0050003 0)
(0.203481 -0.00631199 0)
(0.216156 -0.00766118 0)
(0.229013 -0.00906378 0)
(0.242083 -0.0105324 0)
(0.255405 -0.0120842 0)
(0.269018 -0.0137335 0)
(0.28296 -0.0155004 0)
(0.297279 -0.0173992 0)
(0.312003 -0.0194513 0)
(0.327195 -0.0216637 0)
(0.342858 -0.0240615 0)
(0.359089 -0.0266663 0)
(0.375844 -0.029503 0)
(0.393259 -0.0325916 0)
(0.411226 -0.0359547 0)
(0.429937 -0.0396141 0)
(0.449201 -0.0435879 0)
(0.46928 -0.0479021 0)
(0.489867 -0.0525687 0)
(0.511316 -0.0576173 0)
(0.533166 -0.0630413 0)
(0.555884 -0.0688709 0)
(0.578813 -0.0750704 0)
(0.602563 -0.0816666 0)
(0.626243 -0.0885817 0)
(0.650645 -0.0958362 0)
(0.6746 -0.103295 0)
(0.699134 -0.110973 0)
(0.722757 -0.118671 0)
(0.746789 -0.126408 0)
(0.769381 -0.133919 0)
(0.792232 -0.141244 0)
(0.813094 -0.148058 0)
(0.834122 -0.154452 0)
(0.852639 -0.160053 0)
(0.871325 -0.165032 0)
(0.887048 -0.168982 0)
(0.903062 -0.172175 0)
(0.915762 -0.174182 0)
(0.929001 -0.175391 0)
(0.93869 -0.175354 0)
(0.949268 -0.17458 0)
(0.956171 -0.172596 0)
(0.964391 -0.170025 0)
(0.968898 -0.166369 0)
(0.97517 -0.162348 0)
(0.977744 -0.157425 0)
(0.982503 -0.152391 0)
(0.983605 -0.146667 0)
(0.987251 -0.141089 0)
(0.98729 -0.135028 0)
(0.990149 -0.129351 0)
(0.989454 -0.123381 0)
(0.991764 -0.117999 0)
(0.990581 -0.11249 0)
(0.992489 -0.107737 0)
(0.990988 -0.102998 0)
(0.992558 -0.0991501 0)
(0.990844 -0.0954388 0)
(0.992057 -0.0927198 0)
(0.990181 -0.0902434 0)
(0.990931 -0.0888276 0)
(0.988907 -0.0877447 0)
(-0.0189395 0.107828 0)
(-0.0181777 0.072721 0)
(-0.0113601 0.0580266 0)
(0.00106745 0.0461392 0)
(0.0173179 0.0363362 0)
(0.0356953 0.0288141 0)
(0.0552689 0.0229169 0)
(0.075256 0.0180938 0)
(0.095561 0.0139604 0)
(0.115533 0.0103354 0)
(0.135379 0.00714375 0)
(0.154941 0.00433661 0)
(0.174141 0.00184197 0)
(0.192949 -0.00040172 0)
(0.211367 -0.00243729 0)
(0.229371 -0.00429552 0)
(0.246992 -0.00599983 0)
(0.264189 -0.00757243 0)
(0.281036 -0.00903178 0)
(0.297506 -0.0103987 0)
(0.313614 -0.011699 0)
(0.329393 -0.0129578 0)
(0.344879 -0.0141952 0)
(0.360104 -0.0154312 0)
(0.375109 -0.0166831 0)
(0.38992 -0.0179684 0)
(0.404588 -0.0192992 0)
(0.419163 -0.0206859 0)
(0.43368 -0.0221388 0)
(0.448191 -0.0236776 0)
(0.462736 -0.0253173 0)
(0.477364 -0.0270788 0)
(0.492115 -0.0289752 0)
(0.507033 -0.0310272 0)
(0.522157 -0.0332457 0)
(0.537521 -0.0356521 0)
(0.553165 -0.0382557 0)
(0.569106 -0.04108 0)
(0.585389 -0.0441355 0)
(0.602009 -0.0474467 0)
(0.619016 -0.0510211 0)
(0.636369 -0.0548815 0)
(0.654129 -0.0590324 0)
(0.672208 -0.0634937 0)
(0.690685 -0.0682663 0)
(0.709409 -0.0733654 0)
(0.728483 -0.0787879 0)
(0.747667 -0.0845391 0)
(0.767106 -0.0906056 0)
(0.786444 -0.0969719 0)
(0.805891 -0.10361 0)
(0.824944 -0.110473 0)
(0.843921 -0.117516 0)
(0.862136 -0.124656 0)
(0.88007 -0.131832 0)
(0.896814 -0.138918 0)
(0.913095 -0.145851 0)
(0.927736 -0.152458 0)
(0.941811 -0.158695 0)
(0.953816 -0.16435 0)
(0.96528 -0.169426 0)
(0.974294 -0.173681 0)
(0.982961 -0.177198 0)
(0.988872 -0.179707 0)
(0.994814 -0.181403 0)
(0.997772 -0.181981 0)
(1.0013 -0.181771 0)
(1.00168 -0.180423 0)
(1.00328 -0.178409 0)
(1.00158 -0.175309 0)
(1.00184 -0.171743 0)
(0.998599 -0.167206 0)
(0.998049 -0.162461 0)
(0.993772 -0.156896 0)
(0.992871 -0.151402 0)
(0.987945 -0.145245 0)
(0.987023 -0.13943 0)
(0.981712 -0.133095 0)
(0.980971 -0.127349 0)
(0.975422 -0.121206 0)
(0.974959 -0.11587 0)
(0.969223 -0.110235 0)
(0.969055 -0.105594 0)
(0.963112 -0.100733 0)
(0.963198 -0.0970223 0)
(0.956978 -0.0931537 0)
(0.957225 -0.0905623 0)
(0.950616 -0.087857 0)
(0.95088 -0.0865223 0)
(0.943738 -0.0851008 0)
(0.0697537 0.00704 0)
(0.0896254 0.00654529 0)
(0.15317 0.00610949 0)
(0.197921 0.00296267 0)
(0.236586 -0.00129147 0)
(0.27169 -0.00535924 0)
(0.304099 -0.00885615 0)
(0.333594 -0.0117995 0)
(0.361035 -0.0143036 0)
(0.386575 -0.0164442 0)
(0.410667 -0.0183058 0)
(0.433463 -0.0199378 0)
(0.455075 -0.0213803 0)
(0.47561 -0.0226637 0)
(0.495173 -0.0238127 0)
(0.513843 -0.0248445 0)
(0.531693 -0.0257794 0)
(0.548781 -0.0266348 0)
(0.565165 -0.0274393 0)
(0.580901 -0.0282122 0)
(0.596035 -0.0289707 0)
(0.610625 -0.0297345 0)
(0.624723 -0.0305229 0)
(0.638386 -0.0313556 0)
(0.651662 -0.032249 0)
(0.664607 -0.0332199 0)
(0.677269 -0.0342823 0)
(0.689708 -0.0354516 0)
(0.701959 -0.0367391 0)
(0.714076 -0.0381606 0)
(0.72609 -0.0397273 0)
(0.738054 -0.0414555 0)
(0.749992 -0.043355 0)
(0.761952 -0.0454432 0)
(0.773946 -0.0477292 0)
(0.786015 -0.0502304 0)
(0.798159 -0.0529538 0)
(0.810411 -0.0559164 0)
(0.822759 -0.0591227 0)
(0.835222 -0.0625901 0)
(0.847776 -0.0663191 0)
(0.860425 -0.0703257 0)
(0.873127 -0.0746051 0)
(0.885866 -0.0791703 0)
(0.898587 -0.0840092 0)
(0.911245 -0.089131 0)
(0.923773 -0.094514 0)
(0.936089 -0.10016 0)
(0.948124 -0.106031 0)
(0.959753 -0.112116 0)
(0.970918 -0.118357 0)
(0.981435 -0.124722 0)
(0.991291 -0.131132 0)
(1.00023 -0.137533 0)
(1.00833 -0.143827 0)
(1.01523 -0.149936 0)
(1.02118 -0.155749 0)
(1.02569 -0.161174 0)
(1.02924 -0.166107 0)
(1.03117 -0.170451 0)
(1.03229 -0.174134 0)
(1.03166 -0.177055 0)
(1.03055 -0.179206 0)
(1.02762 -0.180476 0)
(1.02472 -0.180945 0)
(1.01991 -0.180479 0)
(1.01579 -0.17927 0)
(1.00961 -0.177135 0)
(1.00489 -0.174399 0)
(0.997817 -0.170793 0)
(0.993007 -0.166797 0)
(0.985405 -0.162016 0)
(0.980889 -0.157101 0)
(0.972968 -0.151492 0)
(0.968982 -0.146026 0)
(0.960824 -0.139943 0)
(0.957478 -0.134283 0)
(0.949061 -0.128061 0)
(0.946378 -0.122538 0)
(0.937617 -0.116482 0)
(0.935575 -0.111391 0)
(0.926348 -0.105774 0)
(0.924905 -0.101373 0)
(0.915068 -0.0964291 0)
(0.914169 -0.0929357 0)
(0.903558 -0.0888619 0)
(0.903126 -0.0864471 0)
(0.891551 -0.0833917 0)
(0.891473 -0.0821659 0)
(0.878714 -0.0802167 0)
(0.773368 -0.00908345 0)
(0.774837 -0.0204465 0)
(0.775587 -0.0266081 0)
(0.777168 -0.0302526 0)
(0.7807 -0.0328521 0)
(0.785961 -0.0350003 0)
(0.792666 -0.0368262 0)
(0.80019 -0.0382918 0)
(0.8083 -0.03942 0)
(0.816793 -0.0402417 0)
(0.825487 -0.0408357 0)
(0.834253 -0.0412703 0)
(0.842991 -0.0415892 0)
(0.851629 -0.0418187 0)
(0.860112 -0.0419771 0)
(0.8684 -0.0420795 0)
(0.876462 -0.0421418 0)
(0.884276 -0.0421808 0)
(0.891831 -0.042216 0)
(0.899125 -0.0422667 0)
(0.906161 -0.0423516 0)
(0.912951 -0.0424898 0)
(0.919507 -0.0427004 0)
(0.925854 -0.0430018 0)
(0.932008 -0.0434111 0)
(0.937998 -0.0439442 0)
(0.943843 -0.0446167 0)
(0.949571 -0.0454437 0)
(0.9552 -0.0464372 0)
(0.960754 -0.047609 0)
(0.966246 -0.0489683 0)
(0.971698 -0.0505254 0)
(0.977119 -0.0522881 0)
(0.982525 -0.0542662 0)
(0.987913 -0.0564666 0)
(0.993296 -0.0588986 0)
(0.998662 -0.061567 0)
(1.00402 -0.0644797 0)
(1.00934 -0.0676393 0)
(1.01462 -0.0710523 0)
(1.01982 -0.0747183 0)
(1.02494 -0.0786411 0)
(1.02992 -0.0828153 0)
(1.03474 -0.087241 0)
(1.03933 -0.0919053 0)
(1.04367 -0.0968025 0)
(1.04766 -0.101908 0)
(1.05128 -0.107208 0)
(1.05443 -0.112662 0)
(1.05707 -0.118247 0)
(1.05911 -0.123903 0)
(1.0605 -0.129596 0)
(1.06116 -0.135248 0)
(1.06106 -0.140811 0)
(1.06013 -0.14619 0)
(1.05837 -0.151331 0)
(1.05577 -0.156128 0)
(1.0523 -0.160531 0)
(1.04807 -0.164432 0)
(1.04301 -0.167794 0)
(1.03738 -0.170524 0)
(1.03098 -0.1726 0)
(1.0243 -0.173955 0)
(1.01691 -0.174587 0)
(1.0096 -0.174471 0)
(1.00155 -0.173611 0)
(0.994027 -0.172042 0)
(0.98558 -0.169756 0)
(0.978135 -0.166866 0)
(0.969384 -0.163314 0)
(0.962185 -0.15932 0)
(0.953078 -0.154728 0)
(0.946194 -0.149896 0)
(0.936588 -0.144525 0)
(0.93005 -0.139156 0)
(0.919771 -0.133287 0)
(0.913621 -0.127696 0)
(0.902491 -0.121616 0)
(0.896809 -0.116119 0)
(0.884666 -0.110106 0)
(0.87958 -0.105009 0)
(0.866262 -0.0993218 0)
(0.861936 -0.0949024 0)
(0.84725 -0.089761 0)
(0.843862 -0.0862561 0)
(0.827559 -0.0818328 0)
(0.825277 -0.0794255 0)
(0.807025 -0.0758346 0)
(0.805992 -0.0746303 0)
(0.785388 -0.0719048 0)
(1.05701 0.00845307 0)
(1.06007 0.000122909 0)
(1.06075 -0.00697702 0)
(1.05997 -0.0125743 0)
(1.05904 -0.0171429 0)
(1.05869 -0.0210895 0)
(1.05905 -0.02459 0)
(1.05996 -0.0276539 0)
(1.0612 -0.030277 0)
(1.06264 -0.0324769 0)
(1.06416 -0.0342965 0)
(1.06574 -0.0357891 0)
(1.06733 -0.0370066 0)
(1.06893 -0.0379943 0)
(1.0705 -0.0387913 0)
(1.07202 -0.039432 0)
(1.07349 -0.039948 0)
(1.07488 -0.0403701 0)
(1.07618 -0.0407282 0)
(1.07738 -0.0410519 0)
(1.07848 -0.0413697 0)
(1.07949 -0.0417088 0)
(1.0804 -0.0420951 0)
(1.08123 -0.0425526 0)
(1.08197 -0.0431038 0)
(1.08264 -0.043769 0)
(1.08324 -0.0445672 0)
(1.08379 -0.0455149 0)
(1.08428 -0.0466269 0)
(1.08472 -0.0479151 0)
(1.08512 -0.0493903 0)
(1.08548 -0.0510612 0)
(1.0858 -0.0529358 0)
(1.08607 -0.0550203 0)
(1.08629 -0.05732 0)
(1.08646 -0.0598392 0)
(1.08656 -0.0625816 0)
(1.08658 -0.0655496 0)
(1.08651 -0.068745 0)
(1.08633 -0.0721678 0)
(1.08601 -0.0758172 0)
(1.08555 -0.0796898 0)
(1.0849 -0.0837805 0)
(1.08405 -0.0880808 0)
(1.08296 -0.0925792 0)
(1.0816 -0.0972603 0)
(1.07994 -0.102104 0)
(1.07796 -0.107085 0)
(1.0756 -0.112173 0)
(1.07287 -0.117334 0)
(1.0697 -0.122523 0)
(1.06611 -0.127696 0)
(1.06206 -0.132794 0)
(1.05755 -0.137765 0)
(1.05256 -0.142539 0)
(1.04713 -0.147059 0)
(1.04122 -0.151249 0)
(1.03492 -0.15506 0)
(1.02818 -0.158412 0)
(1.02109 -0.161271 0)
(1.01363 -0.163558 0)
(1.00586 -0.165256 0)
(0.99778 -0.166291 0)
(0.989386 -0.166672 0)
(0.980735 -0.166338 0)
(0.971688 -0.165331 0)
(0.962444 -0.163609 0)
(0.952627 -0.161245 0)
(0.942718 -0.158225 0)
(0.931957 -0.15463 0)
(0.921322 -0.150475 0)
(0.909445 -0.145827 0)
(0.898093 -0.140757 0)
(0.884978 -0.135288 0)
(0.873045 -0.129593 0)
(0.85865 -0.123597 0)
(0.846413 -0.117617 0)
(0.83074 -0.111405 0)
(0.818587 -0.105492 0)
(0.801632 -0.0993639 0)
(0.790036 -0.093861 0)
(0.771715 -0.0880799 0)
(0.761209 -0.0832982 0)
(0.741284 -0.0780582 0)
(0.732446 -0.074254 0)
(0.710445 -0.069668 0)
(0.703922 -0.0670409 0)
(0.679084 -0.0631376 0)
(0.675643 -0.0618173 0)
(0.646896 -0.0585302 0)
(1.0818 -0.00307922 0)
(1.08777 -0.0106109 0)
(1.09207 -0.017894 0)
(1.09475 -0.0239323 0)
(1.09628 -0.0285825 0)
(1.09727 -0.0321697 0)
(1.09813 -0.0350519 0)
(1.09899 -0.0374563 0)
(1.09987 -0.0394753 0)
(1.10071 -0.0411365 0)
(1.10147 -0.0424536 0)
(1.10213 -0.0434515 0)
(1.1027 -0.0441691 0)
(1.10319 -0.0446521 0)
(1.10359 -0.0449464 0)
(1.10393 -0.0450946 0)
(1.10418 -0.045135 0)
(1.10436 -0.0451027 0)
(1.10444 -0.0450305 0)
(1.10444 -0.0449495 0)
(1.10434 -0.0448892 0)
(1.10415 -0.0448772 0)
(1.10387 -0.0449392 0)
(1.1035 -0.0450987 0)
(1.10304 -0.0453768 0)
(1.1025 -0.0457926 0)
(1.10188 -0.0463626 0)
(1.10118 -0.0471012 0)
(1.1004 -0.0480205 0)
(1.09955 -0.0491306 0)
(1.09862 -0.0504394 0)
(1.09762 -0.0519531 0)
(1.09653 -0.0536765 0)
(1.09537 -0.055613 0)