/*--------------------------------*- C++ -*----------------------------------*\
| =========                 |                                                 |
| \\      /  F ield         | OpenFOAM: The Open Source CFD Toolbox           |
|  \\    /   O peration     | Version:  2306                                  |
|   \\  /    A nd           | Website:  www.openfoam.com                      |
|    \\/     M anipulation  |                                                 |
\*---------------------------------------------------------------------------*/
FoamFile
{
    version     2.0;
    format      ascii;
    arch        "LSB;label=32;scalar=64";
    class       volScalarField;
    location    "1.19";
    object      p;
}
// * * * * * * * * * * * * * * * * * * * * * * * * * * * * * * * * * * * * * //

dimensions      [0 2 -2 0 0 0 0];

internalField   nonuniform List<scalar> 
47500
(
14.2636
8.31617
5.39828
4.19503
3.55689
3.16767
2.91732
2.74431
2.61607
2.51598
2.43486
2.3671
2.30911
2.25843
2.21334
2.17258
2.13521
2.10052
2.06796
2.03708
2.00754
1.97906
1.9514
1.92439
1.89787
1.8717
1.84578
1.82002
1.79434
1.76868
1.74298
1.7172
1.69129
1.66524
1.63902
1.61263
1.58607
1.55937
1.53259
1.50581
1.4792
1.453
1.42762
1.40365
1.38188
1.36301
1.34746
1.3336
1.28841
1.04328
9.49512
7.11984
5.49166
4.53467
3.89693
3.45614
3.14915
2.92823
2.76271
2.63424
2.53144
2.4469
2.3757
2.31446
2.26079
2.21299
2.16975
2.13013
2.09337
2.0589
2.02626
1.99508
1.96507
1.93598
1.90761
1.87979
1.85239
1.82528
1.79837
1.77156
1.74479
1.71798
1.69108
1.66405
1.63684
1.60941
1.58174
1.55381
1.52559
1.49709
1.46828
1.43913
1.40959
1.37943
1.34804
1.31386
1.27373
1.22201
1.13978
0.970471
6.67607
5.93528
5.12721
4.46308
3.94453
3.54968
3.25204
3.02532
2.84923
2.70955
2.59637
2.50273
2.42372
2.35583
2.29651
2.24388
2.19651
2.15332
2.11348
2.07632
2.04133
2.00808
1.97624
1.94552
1.91569
1.88656
1.85797
1.82978
1.80186
1.77412
1.74646
1.71881
1.69109
1.66323
1.63518
1.60687
1.57825
1.54924
1.51978
1.48976
1.45907
1.42748
1.39466
1.36002
1.32251
1.28019
1.22989
1.16697
1.08271
0.962362
5.23432
5.05264
4.64953
4.21694
3.83684
3.52092
3.26393
3.0562
2.88764
2.74956
2.63502
2.53867
2.45646
2.38529
2.32282
2.26726
2.21722
2.17162
2.12961
2.0905
2.05375
2.01893
1.98567
1.95367
1.92268
1.89249
1.86293
1.83384
1.80509
1.77656
1.74816
1.71979
1.69137
1.66281
1.63404
1.60498
1.57553
1.54562
1.51511
1.48387
1.45169
1.4183
1.38327
1.34598
1.30545
1.26024
1.20831
1.14714
1.07329
0.983908
4.39926
4.41399
4.2239
3.95438
3.68731
3.44492
3.23308
3.05193
2.89836
2.76817
2.65727
2.56207
2.47956
2.40732
2.34338
2.28617
2.23444
2.18718
2.14359
2.103
2.06488
2.02879
1.99435
1.96126
1.92928
1.89817
1.86775
1.83787
1.80837
1.77915
1.75008
1.72106
1.69201
1.66282
1.6334
1.60367
1.57352
1.54283
1.51146
1.47926
1.44598
1.41135
1.37496
1.33628
1.29459
1.24895
1.19831
1.14173
1.07853
1.00976
3.8757
3.95339
3.8749
3.71213
3.52867
3.34704
3.17727
3.02417
2.88874
2.76993
2.66588
2.57456
2.49402
2.42251
2.35852
2.3008
2.24829
2.20009
2.15549
2.11388
2.07475
2.03768
2.00231
1.96835
1.93553
1.90365
1.8725
1.84193
1.81179
1.78195
1.75229
1.72271
1.6931
1.66337
1.63341
1.60313
1.5724
1.54112
1.50912
1.47625
1.4423
1.407
1.37002
1.33098
1.28941
1.24482
1.19684
1.1454
1.09107
1.03589
3.5308
3.61954
3.5962
3.49997
3.37561
3.24161
3.10813
2.98151
2.86482
2.75892
2.66357
2.57795
2.50099
2.43161
2.36876
2.3115
2.25898
2.2105
2.16542
2.12322
2.08343
2.04568
2.00962
1.97498
1.94151
1.90899
1.87724
1.84609
1.81541
1.78504
1.75489
1.72483
1.69477
1.66459
1.6342
1.60349
1.57236
1.54067
1.50829
1.47507
1.44083
1.40536
1.36843
1.32979
1.28922
1.24654
1.20177
1.15531
1.1081
1.06206
3.29069
3.37294
3.37572
3.32013
3.23648
3.13841
3.03457
2.93125
2.8322
2.73934
2.6534
2.57443
2.50208
2.4358
2.37495
2.31889
2.26702
2.21879
2.17368
2.13126
2.09113
2.05296
2.01643
1.9813
1.94732
1.91431
1.88207
1.85045
1.81932
1.78853
1.75796
1.72752
1.69709
1.66658
1.63587
1.60487
1.57348
1.54157
1.50904
1.47574
1.44155
1.40632
1.3699
1.33218
1.29308
1.25267
1.21117
1.16913
1.12753
1.08791
3.11484
3.1864
3.20097
3.17008
3.11408
3.0425
2.96211
2.8784
2.79511
2.71453
2.63797
2.566
2.49878
2.43619
2.37792
2.32362
2.27289
2.22533
2.18057
2.13825
2.09805
2.05968
2.02288
1.98742
1.95308
1.91969
1.88708
1.85509
1.8236
1.79246
1.76158
1.73084
1.70014
1.66938
1.63847
1.60731
1.57581
1.54386
1.51137
1.47823
1.44436
1.40966
1.37406
1.33755
1.30017
1.26208
1.22362
1.18537
1.14818
1.11324
2.98097
3.04209
3.06143
3.04551
3.0082
2.95595
2.89377
2.82615
2.75646
2.68701
2.61931
2.55427
2.49235
2.43375
2.37844
2.32627
2.27704
2.23049
2.18636
2.1444
2.10435
2.06598
2.02908
1.99344
1.95887
1.92522
1.89233
1.86007
1.8283
1.7969
1.76578
1.73483
1.70394
1.67304
1.64203
1.61082
1.57934
1.54749
1.51521
1.48242
1.44906
1.4151
1.38051
1.34536
1.30975
1.2739
1.23818
1.20311
1.16942
1.13799
2.87615
2.92827
2.94896
2.94212
2.91745
2.87923
2.83105
2.77644
2.71823
2.65857
2.59899
2.54052
2.48384
2.42932
2.37715
2.32734
2.27985
2.23455
2.19129
2.1499
2.11019
2.072
2.03513
1.99943
1.96475
1.93094
1.89787
1.86541
1.83345
1.80187
1.77059
1.73949
1.70851
1.67754
1.64652
1.61537
1.58402
1.5524
1.52045
1.48814
1.45544
1.42233
1.38886
1.35511
1.32123
1.28746
1.25414
1.22175
1.19086
1.16213
2.79238
2.83707
2.85747
2.85613
2.84005
2.81201
2.77454
2.73033
2.68169
2.63048
2.57816
2.52577
2.47408
2.42358
2.37459
2.32726
2.28166
2.23779
2.19556
2.1549
2.11568
2.07779
2.04109
2.00545
1.97076
1.93688
1.90371
1.87113
1.83904
1.80736
1.77597
1.74482
1.7138
1.68285
1.65191
1.62089
1.58976
1.55846
1.52695
1.49522
1.46325
1.43107
1.39874
1.36637
1.33412
1.30222
1.271
1.24085
1.21223
1.18564
2.72443
2.76306
2.78247
2.78444
2.77421
2.75359
2.7243
2.68835
2.6476
2.60361
2.55766
2.51078
2.46373
2.41708
2.37121
2.32638
2.28275
2.2404
2.19932
2.15951
2.1209
2.08342
2.04699
2.01151
1.97688
1.94302
1.90982
1.87719
1.84505
1.81332
1.78191
1.75075
1.71977
1.6889
1.65809
1.62729
1.59645
1.56554
1.53454
1.50343
1.47224
1.44101
1.4098
1.37875
1.34801
1.3178
1.28839
1.26012
1.23336
1.20847
2.66875
2.70244
2.72059
2.72452
2.71831
2.70311
2.68007
2.65068
2.61639
2.57849
2.53809
2.49611
2.4533
2.41024
2.36737
2.325
2.28334
2.24255
2.20269
2.16381
2.12589
2.08892
2.05284
2.01759
1.98311
1.94933
1.91617
1.88356
1.85143
1.8197
1.78832
1.75721
1.72632
1.6956
1.66499
1.63445
1.60396
1.57348
1.54302
1.51258
1.48218
1.45188
1.42176
1.39194
1.36257
1.33385
1.30601
1.27933
1.2541
1.23061
2.62283
2.65248
2.66931
2.67438
2.67095
2.65973
2.64147
2.61728
2.58826
2.55546
2.51981
2.48215
2.44316
2.40341
2.36335
2.32332
2.2836
2.24437
2.20577
2.16786
2.13069
2.09428
2.05861
2.02366
1.98939
1.95576
1.9227
1.89016
1.85809
1.82643
1.79512
1.76412
1.73337
1.70283
1.67246
1.64223
1.61212
1.58212
1.55222
1.52245
1.49284
1.46344
1.43435
1.40566
1.37753
1.35012
1.32364
1.29831
1.27435
1.25201
2.58483
2.61118
2.62676
2.63245
2.63093
2.62265
2.60807
2.58798
2.56325
2.53469
2.50311
2.4692
2.43359
2.39683
2.35936
2.32155
2.28368
2.24597
2.2086
2.17168
2.1353
2.09949
2.06429
2.02969
1.99568
1.96223
1.92932
1.89691
1.86495
1.8334
1.80221
1.77135
1.74079
1.71047
1.68038
1.65049
1.62079
1.59128
1.56196
1.53285
1.504
1.47547
1.44732
1.41968
1.39265
1.3664
1.3411
1.31691
1.29403
1.27264
2.5534
2.57703
2.59146
2.59746
2.59728
2.59117
2.57942
2.56258
2.54132
2.51628
2.48812
2.45744
2.4248
2.39071
2.35559
2.31981
2.28367
2.24742
2.21125
2.17531
2.13972
2.10453
2.06982
2.0356
2.00189
1.96869
1.93597
1.90371
1.8719
1.8405
1.80948
1.77881
1.74846
1.7184
1.68861
1.65909
1.62982
1.6008
1.57205
1.54359
1.51547
1.48774
1.46048
1.43378
1.40775
1.38252
1.35823
1.33503
1.31306
1.29246
2.52749
2.54889
2.56231
2.56842
2.56917
2.56469
2.5551
2.54084
2.52237
2.50022
2.47493
2.447
2.41694
2.38519
2.35217
2.31823
2.28368
2.24879
2.21376
2.17876
2.14393
2.10938
2.07517
2.04135
2.00797
1.97503
1.94253
1.91048
1.87885
1.84764
1.81681
1.78636
1.75625
1.72648
1.69702
1.66788
1.63904
1.61052
1.58233
1.5545
1.52707
1.5001
1.47365
1.44781
1.42266
1.39833
1.37493
1.35257
1.33137
1.31145
2.50632
2.5259
2.53844
2.54455
2.54595
2.54267
2.53476
2.52251
2.50629
2.4865
2.46358
2.43797
2.41009
2.38038
2.34919
2.31689
2.28378
2.25011
2.21613
2.18202
2.14793
2.11398
2.08028
2.04687
2.01383
1.98118
1.94894
1.91711
1.8857
1.8547
1.8241
1.79388
1.76405
1.73458
1.70547
1.67671
1.64831
1.62028
1.59264
1.56542
1.53864
1.51237
1.48667
1.4616
1.43725
1.41371
1.39108
1.36945
1.34892
1.32957
2.48927
2.50738
2.51918
2.52524
2.52708
2.52469
2.51806
2.50739
2.49295
2.47506
2.45408
2.43038
2.40434
2.37634
2.34674
2.31586
2.284
2.25144
2.21841
2.18511
2.1517
2.11833
2.08511
2.05211
2.01942
1.98706
1.95509
1.92351
1.89233
1.86157
1.83122
1.80127
1.77173
1.74258
1.71382
1.68546
1.65751
1.62996
1.60285
1.5762
1.55004
1.52442
1.4994
1.47504
1.4514
1.42856
1.4066
1.38561
1.36565
1.34679
2.47589
2.49282
2.50401
2.50998
2.51213
2.5104
2.50474
2.49528
2.48223
2.46584
2.44641
2.42426
2.39973
2.37315
2.34486
2.31518
2.2844
2.2528
2.2206
2.18801
2.15523
2.12239
2.08961
2.05701
2.02466
1.99261
1.96091
1.92959
1.89868
1.86817
1.83809
1.80843
1.77919
1.75037
1.72198
1.69402
1.6665
1.63943
1.61283
1.58672
1.56114
1.53613
1.51174
1.48801
1.46501
1.44279
1.42143
1.40099
1.38152
1.36308
2.4658
2.48183
2.49253
2.49841
2.50076
2.49951
2.49457
2.48602
2.47402
2.45878
2.44056
2.41962
2.39627
2.37083
2.34361
2.31491
2.28502
2.2542
2.22271
2.19074
2.1585
2.12613
2.09377
2.06153
2.0295
1.99776
1.96634
1.93529
1.90464
1.87441
1.84461
1.81524
1.78632
1.75785
1.72983
1.70227
1.67518
1.64857
1.62247
1.59688
1.57185
1.5474
1.52358
1.50043
1.478
1.45634
1.43551
1.41555
1.39651
1.37844
2.45874
2.4741
2.48445
2.49025
2.49273
2.4918
2.48736
2.47946
2.46823
2.45384
2.43649
2.41646
2.394
2.36942
2.34301
2.31507
2.28587
2.25568
2.22475
2.19329
2.1615
2.12953
2.09754
2.06563
2.03391
2.00245
1.97131
1.94053
1.91016
1.88021
1.8507
1.82165
1.79306
1.76494
1.73729
1.71013
1.68347
1.65731
1.63167
1.60658
1.58206
1.55814
1.53485
1.51223
1.49031
1.46915
1.44879
1.42925
1.41059
1.39283
2.45452
2.46944
2.47954
2.48528
2.48784
2.48712
2.483
2.47552
2.46479
2.45095
2.4342
2.41477
2.39292
2.36893
2.34308
2.31567
2.28697
2.25724
2.22674
2.19566
2.16422
2.13259
2.1009
2.06928
2.03784
2.00665
1.97578
1.94527
1.91518
1.88551
1.85631
1.82757
1.79932
1.77155
1.74428
1.71752
1.69127
1.66555
1.64037
1.61575
1.59171
1.56828
1.54548
1.52334
1.50189
1.48118
1.46123
1.44208
1.42374
1.40626
2.45301
2.4677
2.47767
2.48337
2.48596
2.48535
2.48139
2.47412
2.46365
2.4501
2.43366
2.41455
2.39303
2.36936
2.34384
2.31674
2.28834
2.2589
2.22866
2.19785
2.16667
2.13528
2.10384
2.07246
2.04126
2.01032
1.97971
1.94947
1.91965
1.89028
1.86138
1.83296
1.80505
1.77764
1.75074
1.72438
1.69854
1.67324
1.6485
1.62433
1.60074
1.57777
1.55542
1.53372
1.5127
1.49239
1.47282
1.45399
1.43595
1.4187
2.45415
2.46882
2.47877
2.48446
2.48705
2.48643
2.48248
2.47523
2.46478
2.45126
2.43485
2.41579
2.39433
2.37073
2.34528
2.31827
2.28997
2.26064
2.23053
2.19986
2.16883
2.1376
2.10634
2.07516
2.04417
2.01345
1.98307
1.95309
1.92354
1.89446
1.86587
1.83778
1.81021
1.78315
1.75664
1.73066
1.70522
1.68034
1.65602
1.63227
1.60911
1.58656
1.56463
1.54334
1.52271
1.50277
1.48352
1.465
1.44721
1.43018
2.45794
2.47279
2.48284
2.48855
2.49109
2.49038
2.48628
2.47885
2.46818
2.45443
2.43779
2.4185
2.39682
2.37303
2.34742
2.32027
2.29187
2.26248
2.23235
2.20168
2.1707
2.13955
2.1084
2.07736
2.04654
2.01602
1.98586
1.95613
1.92685
1.89805
1.86977
1.842
1.81477
1.78807
1.76192
1.73633
1.71128
1.6868
1.66288
1.63954
1.61679
1.59463
1.57309
1.55217
1.5319
1.51229
1.49334
1.47509
1.45753
1.44068
2.46443
2.47968
2.48994
2.49569
2.49815
2.49723
2.49282
2.48499
2.47387
2.45962
2.44247
2.42267
2.4005
2.37626
2.35023
2.32273
2.29403
2.26441
2.23409
2.20332
2.17227
2.14112
2.11001
2.07906
2.04837
2.01802
1.98807
1.95857
1.92955
1.90104
1.87305
1.84561
1.81872
1.79238
1.76659
1.74137
1.7167
1.6926
1.66907
1.64612
1.62375
1.60197
1.58078
1.56021
1.54026
1.52095
1.50228
1.48426
1.4669
1.45021
2.47374
2.4896
2.50019
2.506
2.50832
2.50707
2.50218
2.49373
2.48189
2.46687
2.44891
2.42831
2.40536
2.38039
2.35371
2.32563
2.29644
2.2664
2.23577
2.20475
2.17354
2.14231
2.11118
2.08027
2.04967
2.01947
1.9897
1.96042
1.93165
1.90341
1.87573
1.84861
1.82205
1.79606
1.77063
1.74577
1.72148
1.69775
1.67459
1.652
1.62999
1.60855
1.5877
1.56745
1.5478
1.52875
1.51032
1.49252
1.47534
1.4588
2.48604
2.50276
2.5138
2.51968
2.52179
2.52008
2.51449
2.50516
2.49231
2.4762
2.45712
2.4354
2.41139
2.38542
2.35783
2.32895
2.29906
2.26845
2.23735
2.20597
2.17451
2.14311
2.1119
2.08099
2.05046
2.02036
1.99076
1.96169
1.93316
1.9052
1.87781
1.851
1.82477
1.79912
1.77404
1.74954
1.7256
1.70223
1.67942
1.65718
1.6355
1.61439
1.59385
1.57389
1.5545
1.53571
1.5175
1.49988
1.48286
1.46644
2.50161
2.51945
2.53107
2.53702
2.53881
2.53645
2.52991
2.51941
2.50522
2.48767
2.46712
2.44396
2.41856
2.39131
2.36255
2.33264
2.30187
2.27051
2.23881
2.20697
2.17517
2.14353
2.11219
2.08123
2.05073
2.02073
1.99128
1.9624
1.9341
1.9064
1.87931
1.85281
1.8269
1.80158
1.77684
1.75268
1.72908
1.70605
1.68358
1.66166
1.6403
1.61949
1.59924
1.57954
1.5604
1.54183
1.52381
1.50637
1.48949
1.47317
2.52078
2.54005
2.55237
2.55836
2.55971
2.55646
2.54866
2.53662
2.52071
2.50133
2.47893
2.45396
2.42684
2.398
2.36783
2.33666
2.30482
2.27257
2.24014
2.20773
2.1755
2.14357
2.11205
2.08101
2.0505
2.02058
1.99126
1.96257
1.9345
1.90706
1.88024
1.85404
1.82845
1.80345
1.77904
1.75521
1.73194
1.70923
1.68707
1.66546
1.64439
1.62386
1.60387
1.58442
1.5655
1.54713
1.52929
1.51199
1.49523
1.47901
2.54401
2.56506
2.57823
2.5842
2.5849
2.58046
2.57101
2.557
2.53889
2.51723
2.49255
2.46537
2.43618
2.40545
2.37358
2.34094
2.30785
2.27456
2.24129
2.20822
2.17549
2.14322
2.11147
2.08032
2.04981
2.01994
1.99075
1.96223
1.93438
1.90719
1.88065
1.85474
1.82945
1.80477
1.78067
1.75715
1.73419
1.71179
1.68993
1.6686
1.6478
1.62753
1.60778
1.58855
1.56983
1.55163
1.53395
1.51678
1.50013
1.48399
2.57192
2.59514
2.6093
2.61515
2.61492
2.60886
2.59728
2.58074
2.5599
2.53542
2.50796
2.47813
2.44649
2.41355
2.37973
2.3454
2.31088
2.27642
2.2422
2.2084
2.17513
2.14247
2.11048
2.0792
2.04865
2.01884
1.98976
1.96141
1.93377
1.90683
1.88055
1.85493
1.82993
1.80555
1.78175
1.75853
1.73587
1.71375
1.69216
1.6711
1.65055
1.63052
1.61098
1.59195
1.57341
1.55537
1.53782
1.52077
1.50421
1.48813
2.60527
2.63116
2.64644
2.65197
2.65041
2.64219
2.62781
2.60807
2.58383
2.55591
2.52512
2.49216
2.45767
2.42218
2.38614
2.34993
2.31383
2.27807
2.24283
2.20824
2.17438
2.1413
2.10905
2.07763
2.04705
2.01728
1.98832
1.96014
1.93271
1.906
1.87998
1.85463
1.82992
1.80582
1.78232
1.75938
1.73699
1.71514
1.69381
1.67299
1.65267
1.63284
1.6135
1.59465
1.57627
1.55837
1.54094
1.52398
1.50749
1.49146
2.64509
2.67424
2.69075
2.69565
2.69217
2.68104
2.66303
2.63923
2.61077
2.57868
2.54393
2.50731
2.46954
2.43117
2.39267
2.35437
2.31656
2.27943
2.2431
2.20768
2.17321
2.13971
2.10719
2.07563
2.04501
2.0153
1.98645
1.95844
1.93121
1.90474
1.87897
1.85389
1.82945
1.80563
1.78239
1.75971
1.73759
1.71598
1.69489
1.67429
1.65417
1.63454
1.61537
1.59667
1.57843
1.56065
1.54332
1.52644
1.51001
1.49403
2.69273
2.72588
2.74367
2.74744
2.74119
2.72611
2.70335
2.67442
2.64075
2.60365
2.56421
2.52338
2.48188
2.44031
2.3991
2.35857
2.31894
2.28036
2.24291
2.20664
2.17156
2.13765
2.10487
2.07319
2.04255
2.0129
1.98417
1.95633
1.92931
1.90307
1.87755
1.85272
1.82854
1.80498
1.782
1.75957
1.73768
1.7163
1.69542
1.67503
1.6551
1.63563
1.61662
1.59806
1.57994
1.56225
1.54501
1.52819
1.51181
1.49585
2.75001
2.78806
2.8071
2.8089
2.79865
2.77818
2.74922
2.71378
2.67372
2.6306
2.5857
2.54004
2.49439
2.44931
2.40518
2.36229
2.32077
2.28071
2.24215
2.20505
2.16938
2.13508
2.10208
2.0703
2.03966
2.01008
1.98149
1.95383
1.92702
1.901
1.87573
1.85115
1.82722
1.80391
1.78117
1.75897
1.7373
1.71614
1.69545
1.67523
1.65547
1.63616
1.61728
1.59883
1.58081
1.56321
1.54603
1.52927
1.51292
1.49698
2.81942
2.8635
2.88353
2.88202
2.86594
2.83808
2.80099
2.75734
2.70945
2.65919
2.60798
2.55688
2.50665
2.45778
2.4106
2.36526
2.32183
2.28032
2.24067
2.20279
2.16659
2.13195
2.09876
2.06692
2.03631
2.00684
1.97841
1.95094
1.92434
1.89856
1.87353
1.8492
1.82551
1.80243
1.77992
1.75794
1.73648
1.7155
1.69499
1.67494
1.65532
1.63613
1.61737
1.59902
1.58108
1.56355
1.54642
1.5297
1.51337
1.49744
2.90452
2.95601
2.9763
2.96931
2.94467
2.90667
2.85891
2.80492
2.74752
2.68885
2.63043
2.57329
2.51812
2.46527
2.41493
2.36715
2.32186
2.27896
2.2383
2.19973
2.16307
2.12817
2.09487
2.06302
2.03249
2.00316
1.97491
1.94765
1.92129
1.89575
1.87097
1.84688
1.82342
1.80057
1.77827
1.7565
1.73522
1.71442
1.69407
1.67416
1.65467
1.6356
1.61693
1.59866
1.58079
1.56331
1.54622
1.52952
1.5132
1.49727
3.01051
3.07097
3.08992
3.07387
3.03662
2.98462
2.92292
2.85596
2.78711
2.71869
2.65218
2.58849
2.52809
2.47117
2.4177
2.36756
2.32053
2.27638
2.23485
2.19571
2.15872
2.12366
2.09033
2.05855
2.02815
1.99901
1.97098
1.94396
1.91785
1.89257
1.86803
1.84418
1.82096
1.79833
1.77624
1.75466
1.73356
1.71291
1.69271
1.67292
1.65355
1.63457
1.61599
1.59779
1.57997
1.56252
1.54546
1.52877
1.51245
1.4965
3.14537
3.21627
3.23046
3.19946
3.14354
3.07227
2.99239
2.90937
2.82694
2.7474
2.67203
2.60141
2.5357
2.47476
2.41832
2.36601
2.31746
2.27227
2.23008
2.19055
2.15338
2.11829
2.08504
2.05342
2.02324
1.99435
1.96659
1.93984
1.91401
1.889
1.86472
1.84112
1.81814
1.79572
1.77383
1.75243
1.7315
1.711
1.69093
1.67126
1.65198
1.63308
1.61457
1.59642
1.57864
1.56122
1.54417
1.52748
1.51115
1.49518
3.32203
3.40363
3.40605
3.35038
3.26685
3.16911
3.0658
2.96318
2.865
2.77315
2.68838
2.61073
2.53984
2.47516
2.41608
2.36197
2.31222
2.2663
2.22371
2.18403
2.14688
2.11193
2.07891
2.04756
2.01769
1.98912
1.96169
1.93526
1.90974
1.88502
1.86103
1.83769
1.81494
1.79275
1.77105
1.74983
1.72906
1.7087
1.68875
1.66918
1.64999
1.63116
1.6127
1.59459
1.57684
1.55943
1.54238
1.52568
1.50934
1.49334
3.56275
3.65087
3.62721
3.53092
3.40672
3.27307
3.14011
3.01418
2.89832
2.7934
2.69916
2.61478
2.53921
2.47138
2.41023
2.35483
2.30436
2.25812
2.21548
2.17594
2.13906
2.10445
2.07182
2.04089
2.01143
1.98327
1.95623
1.93019
1.90502
1.88063
1.85694
1.83388
1.81138
1.78941
1.76792
1.74687
1.72625
1.70603
1.68619
1.66671
1.6476
1.62883
1.61041
1.59233
1.57459
1.55719
1.54014
1.52342
1.50705
1.49102
3.90806
3.98518
3.9064
3.74361
3.56032
3.37904
3.20977
3.05731
2.92265
2.80473
2.70172
2.61156
2.53232
2.46226
2.39989
2.34394
2.29338
2.24734
2.20509
2.16605
2.12972
2.0957
2.06365
2.03329
2.00438
1.97673
1.95018
1.92458
1.89982
1.8758
1.85244
1.82968
1.80745
1.78571
1.76442
1.74356
1.72309
1.703
1.68326
1.66388
1.64483
1.62611
1.60773
1.58967
1.57194
1.55453
1.53746
1.52071
1.50431
1.48824
4.43184
4.44605
4.25573
3.9862
3.7193
3.47722
3.26582
3.08523
2.93234
2.80296
2.69299
2.59885
2.51755
2.44666
2.38422
2.32869
2.27882
2.23361
2.19226
2.15414
2.11871
2.08554
2.0543
2.02469
1.99648
1.96946
1.94348
1.9184
1.8941
1.8705
1.84751
1.82508
1.80314
1.78165
1.76058
1.7399
1.71959
1.69962
1.67999
1.66069
1.6417
1.62303
1.60467
1.58663
1.56889
1.55148
1.53438
1.5176
1.50115
1.48503
5.2669
5.08481
4.6815
4.24892
3.86894
3.55326
3.29662
3.08935
2.92137
2.78398
2.67026
2.57487
2.49376
2.42384
2.36278
2.30879
2.2605
2.21683
2.17695
2.14019
2.10601
2.07399
2.04379
2.01511
1.98774
1.96147
1.93616
1.91168
1.88791
1.86477
1.8422
1.82012
1.79849
1.77727
1.75643
1.73594
1.71578
1.69595
1.67643
1.6572
1.63827
1.61964
1.6013
1.58326
1.56552
1.54808
1.53095
1.51413
1.49763
1.48145
6.7085
5.9674
5.15916
4.49498
3.97648
3.58177
3.28438
3.05801
2.88239
2.7433
2.63083
2.53804
2.46003
2.39328
2.33527
2.2841
2.23836
2.197
2.15917
2.12423
2.09167
2.06109
2.03215
2.00459
1.97821
1.95282
1.92827
1.90446
1.88128
1.85866
1.83653
1.81484
1.79354
1.7726
1.752
1.73172
1.71173
1.69203
1.6726
1.65346
1.63458
1.61598
1.59766
1.57962
1.56186
1.54439
1.52722
1.51035
1.4938
1.47756
9.52728
7.15177
5.52338
4.56626
3.92844
3.48767
3.1808
2.96011
2.79493
2.66695
2.56475
2.48095
2.41063
2.35043
2.29795
2.25149
2.20977
2.17183
2.13695
2.10455
2.07419
2.0455
2.01822
1.9921
1.96696
1.94266
1.91906
1.89607
1.87361
1.8516
1.83001
1.80877
1.78786
1.76725
1.74692
1.72686
1.70706
1.6875
1.66819
1.64912
1.6303
1.61173
1.59342
1.57537
1.55758
1.54007
1.52285
1.50592
1.48929
1.47298
14.2955
8.34784
5.42962
4.22606
3.58769
3.19833
2.94794
2.77503
2.64701
2.54727
2.46663
2.39949
2.34226
2.29248
2.24844
2.20889
2.17289
2.13974
2.10888
2.07989
2.05244
2.02625
2.0011
1.97683
1.95328
1.93035
1.90794
1.88598
1.8644
1.84315
1.8222
1.80152
1.78108
1.76086
1.74086
1.72107
1.70148
1.68209
1.6629
1.64392
1.62515
1.60661
1.5883
1.57022
1.5524
1.53483
1.51754
1.50053
1.48381
1.4674
1.01268
1.01222
1.01135
1.01028
1.00923
1.00833
1.00768
1.00734
1.00736
1.00777
1.00857
1.00977
1.01136
1.01333
1.01567
1.01836
1.02138
1.02471
1.02833
1.03221
1.03633
1.04067
1.0452
1.0499
1.05474
1.0597
1.06476
1.06989
1.07508
1.08031
1.08554
1.09078
1.09599
1.10116
1.10628
1.11133
1.11629
1.12115
1.12591
1.13054
1.13504
1.1394
1.14361
1.14765
1.15153
1.15524
1.15877
1.16212
1.16528
1.16824
1.17102
1.17359
1.17597
1.17815
1.18013
1.1819
1.18348
1.18486
1.18604
1.18702
1.18781
1.18841
1.18882
1.18904
1.18908
1.18894
1.18862
1.18813
1.18747
1.18664
1.18566
1.18452
1.18323
1.18179
1.18021
1.17849
1.17664
1.17466
1.17256
1.17034
1.168
1.16555
1.163
1.16035
1.15761
1.15477
1.15185
1.14884
1.14575
1.14259
1.13936
1.13606
1.1327
1.12928
1.12581
1.12229
1.11871
1.11509
1.11143
1.10773
1.104
1.10023
1.09644
1.09261
1.08876
1.08489
1.081
1.07709
1.07317
1.06924
1.06529
1.06133
1.05737
1.0534
1.04942
1.04544
1.04146
1.03749
1.03351
1.02953
1.02556
1.0216
1.01764
1.01368
1.00974
1.0058
1.00187
0.997954
0.994046
0.99015
0.986265
0.982392
0.978532
0.974686
0.970852
0.967033
0.963228
0.959436
0.95566
0.951898
0.948151
0.944419
0.940703
0.937001
0.933315
0.929643
0.925988
0.922347
0.918722
0.915112
0.911516
0.907936
0.904371
0.900821
0.897285
0.893764
0.890257
0.886765
0.883286
0.879822
0.876371
0.872934
0.86951
0.8661
0.862702
0.859317
0.855944
0.852584
0.849236
0.8459
0.842575
0.839262
0.83596
0.832669
0.829388
0.826118
0.822858
0.819608
0.816368
0.813138
0.809916
0.806704
0.803501
0.800306
0.79712
0.793941
0.790771
0.787609
0.784454
0.781307
0.778166
0.775033
0.771906
0.768786
0.765673
0.762565
0.759463
0.756368
0.753277
0.750192
0.747113
0.744038
0.740969
0.737904
0.734843
0.731787
0.728736
0.725688
0.722644
0.719604
0.716568
0.713535
0.710506
0.70748
0.704457
0.701436
0.698419
0.695405
0.692393
0.689384
0.686377
0.683372
0.68037
0.677369
0.674371
0.671375
0.66838
0.665387
0.662396
0.659406
0.656417
0.65343
0.650445
0.64746
0.644477
0.641495
0.638513
0.635533
0.632553
0.629575
0.626597
0.62362
0.620643
0.617667
0.614692
0.611717
0.608742
0.605768
0.602795
0.599821
0.596848
0.593875
0.590902
0.58793
0.584957
0.581985
0.579012
0.57604
0.573068
0.570095
0.567123
0.56415
0.561178
0.558205
0.555232
0.552259
0.549286
0.546313
0.54334
0.540366
0.537392
0.534418
0.531444
0.528469
0.525494
0.522519
0.519543
0.516568
0.513591
0.510615
0.507638
0.504661
0.501683
0.498706
0.495727
0.492749
0.48977
0.48679
0.48381
0.48083
0.47785
0.474869
0.471888
0.468906
0.465925
0.462942
0.45996
0.456977
0.453994
0.45101
0.448026
0.445042
0.442057
0.439073
0.436087
0.433102
0.430116
0.427129
0.424143
0.421156
0.418168
0.415181
0.412193
0.409205
0.406216
0.403227
0.400238
0.397248
0.394258
0.391268
0.388278
0.385287
0.382296
0.379305
0.376313
0.373322
0.37033
0.367338
0.364345
0.361353
0.35836
0.355367
0.352374
0.34938
0.346386
0.343392
0.340398
0.337404
0.334409
0.331415
0.32842
0.325425
0.322429
0.319434
0.316438
0.313442
0.310446
0.30745
0.304454
0.301458
0.298461
0.295464
0.292467
0.28947
0.286473
0.283476
0.280479
0.277481
0.274484
0.271486
0.268488
0.26549
0.262492
0.259494
0.256496
0.253498
0.2505
0.247501
0.244503
0.241504
0.238506
0.235507
0.232508
0.229509
0.22651
0.223511
0.220512
0.217513
0.214514
0.211514
0.208515
0.205516
0.202516
0.199517
0.196517
0.193518
0.190518
0.187518
0.184519
0.181519
0.178519
0.175519
0.172519
0.169519
0.166519
0.16352
0.16052
0.15752
0.15452
0.15152
0.14852
0.145519
0.142519
0.139519
0.136519
0.133519
0.130519
0.127519
0.124519
0.121518
0.118518
0.115518
0.112518
0.109518
0.106517
0.103517
0.100517
0.0975163
0.0945159
0.0915155
0.0885151
0.0855147
0.0825143
0.0795139
0.0765134
0.073513
0.0705126
0.0675121
0.0645117
0.0615113
0.0585109
0.0555105
0.0525101
0.0495097
0.0465094
0.0435091
0.0405087
0.0375084
0.0345081
0.0315078
0.0285075
0.0255071
0.0225067
0.0195063
0.0165058
0.0135053
0.0105047
0.00750401
0.0045032
0.00150165
1.01313
1.01268
1.01199
1.01119
1.01042
1.00978
1.00936
1.0092
1.00935
1.00984
1.01068
1.01188
1.01343
1.01533
1.01757
1.02014
1.02302
1.02619
1.02963
1.03332
1.03724
1.04137
1.04569
1.05017
1.05479
1.05953
1.06437
1.06929
1.07426
1.07928
1.08431
1.08935
1.09437
1.09936
1.1043
1.10918
1.11398
1.11869
1.1233
1.1278
1.13218
1.13642
1.14052
1.14447
1.14826
1.15189
1.15534
1.15863
1.16173
1.16465
1.16738
1.16992
1.17227
1.17443
1.1764
1.17817
1.17975
1.18113
1.18232
1.18332
1.18413
1.18476
1.18519
1.18545
1.18553
1.18543
1.18515
1.18471
1.1841
1.18333
1.1824
1.18132
1.18009
1.17871
1.17719
1.17554
1.17375
1.17184
1.1698
1.16765
1.16538
1.163
1.16052
1.15794
1.15526
1.15249
1.14964
1.1467
1.14368
1.14059
1.13742
1.13419
1.1309
1.12754
1.12413
1.12067
1.11715
1.1136
1.10999
1.10635
1.10268
1.09897
1.09522
1.09145
1.08766
1.08384
1.07999
1.07614
1.07226
1.06837
1.06446
1.06055
1.05663
1.0527
1.04876
1.04482
1.04088
1.03694
1.033
1.02906
1.02512
1.02118
1.01725
1.01333
1.00941
1.0055
1.0016
0.997703
0.993819
0.989945
0.986082
0.982231
0.978391
0.974563
0.970748
0.966946
0.963158
0.959382
0.955621
0.951873
0.94814
0.944421
0.940717
0.937027
0.933351
0.929691
0.926045
0.922413
0.918797
0.915194
0.911607
0.908034
0.904475
0.900931
0.897401
0.893885
0.890384
0.886896
0.883421
0.879961
0.876513
0.873079
0.869658
0.86625
0.862854
0.859471
0.8561
0.852742
0.849395
0.846059
0.842735
0.839422
0.836121
0.832829
0.829549
0.826278
0.823018
0.819768
0.816527
0.813295
0.810073
0.80686
0.803655
0.800459
0.797271
0.794092
0.79092
0.787756
0.784599
0.78145
0.778308
0.775173
0.772044
0.768922
0.765806
0.762697
0.759593
0.756495
0.753402
0.750315
0.747234
0.744157
0.741085
0.738018
0.734955
0.731897
0.728843
0.725793
0.722747
0.719705
0.716666
0.713631
0.710599
0.707571
0.704546
0.701524
0.698504
0.695488
0.692474
0.689462
0.686453
0.683447
0.680442
0.67744
0.67444
0.671441
0.668445
0.66545
0.662456
0.659465
0.656475
0.653486
0.650498
0.647512
0.644527
0.641543
0.63856
0.635578
0.632597
0.629617
0.626638
0.623659
0.620681
0.617704
0.614727
0.611751
0.608775
0.6058
0.602825
0.59985
0.596876
0.593902
0.590928
0.587954
0.58498
0.582007
0.579034
0.57606
0.573087
0.570114
0.56714
0.564167
0.561194
0.55822
0.555247
0.552273
0.549299
0.546325
0.543351
0.540377
0.537402
0.534427
0.531452
0.528477
0.525502
0.522526
0.51955
0.516574
0.513597
0.51062
0.507643
0.504665
0.501687
0.498709
0.49573
0.492751
0.489772
0.486792
0.483812
0.480831
0.477851
0.47487
0.471888
0.468906
0.465924
0.462942
0.459959
0.456976
0.453993
0.451009
0.448025
0.44504
0.442056
0.43907
0.436085
0.433099
0.430113
0.427127
0.42414
0.421153
0.418166
0.415178
0.41219
0.409201
0.406213
0.403224
0.400234
0.397245
0.394255
0.391265
0.388274
0.385283
0.382292
0.379301
0.37631
0.373318
0.370326
0.367334
0.364342
0.361349
0.358356
0.355363
0.35237
0.349376
0.346383
0.343389
0.340395
0.3374
0.334406
0.331411
0.328416
0.325421
0.322426
0.31943
0.316435
0.313439
0.310443
0.307447
0.304451
0.301454
0.298458
0.295461
0.292464
0.289467
0.28647
0.283473
0.280476
0.277478
0.274481
0.271483
0.268485
0.265488
0.26249
0.259492
0.256494
0.253495
0.250497
0.247499
0.2445
0.241502
0.238503
0.235505
0.232506
0.229507
0.226508
0.223509
0.22051
0.217511
0.214512
0.211512
0.208513
0.205514
0.202514
0.199515
0.196515
0.193516
0.190516
0.187517
0.184517
0.181517
0.178517
0.175518
0.172518
0.169518
0.166518
0.163518
0.160518
0.157518
0.154518
0.151518
0.148518
0.145518
0.142518
0.139518
0.136518
0.133518
0.130518
0.127518
0.124518
0.121518
0.118517
0.115517
0.112517
0.109517
0.106517
0.103516
0.100516
0.0975157
0.0945153
0.091515
0.0885146
0.0855142
0.0825138
0.0795134
0.076513
0.0735126
0.0705121
0.0675117
0.0645113
0.0615109
0.0585105
0.0555101
0.0525098
0.0495094
0.0465091
0.0435088
0.0405084
0.0375081
0.0345078
0.0315075
0.0285072
0.0255068
0.0225064
0.0195059
0.0165054
0.0135049
0.0105042
0.0075035
0.00450274
0.00150146
1.014
1.01336
1.01267
1.01198
1.01135
1.01085
1.01056
1.01051
1.01075
1.0113
1.01216
1.01336
1.01489
1.01674
1.01891
1.02139
1.02416
1.02721
1.03051
1.03406
1.03783
1.04179
1.04594
1.05025
1.0547
1.05927
1.06394
1.06869
1.0735
1.07835
1.08322
1.0881
1.09297
1.09781
1.10261
1.10735
1.11203
1.11662
1.12112
1.12551
1.12979
1.13393
1.13795
1.14182
1.14554
1.1491
1.1525
1.15573
1.15879
1.16167
1.16437
1.16688
1.16921
1.17135
1.17331
1.17508
1.17665
1.17804
1.17924
1.18025
1.18108
1.18172
1.18218
1.18247
1.18257
1.18251
1.18227
1.18186
1.1813
1.18057
1.17968
1.17865
1.17746
1.17614
1.17467
1.17307
1.17133
1.16948
1.16749
1.16539
1.16318
1.16086
1.15844
1.15591
1.15329
1.15058
1.14778
1.14489
1.14193
1.13889
1.13578
1.1326
1.12936
1.12606
1.1227
1.11929
1.11583
1.11232
1.10877
1.10517
1.10154
1.09788
1.09418
1.09045
1.0867
1.08292
1.07912
1.0753
1.07147
1.06761
1.06375
1.05987
1.05598
1.05209
1.04819
1.04428
1.04037
1.03646
1.03254
1.02863
1.02472
1.02081
1.0169
1.013
1.00911
1.00522
1.00134
0.99747
0.993607
0.989752
0.985908
0.982075
0.978252
0.974441
0.970642
0.966855
0.963081
0.959319
0.955571
0.951836
0.948115
0.944407
0.940714
0.937034
0.933368
0.929716
0.926079
0.922456
0.918847
0.915252
0.911671
0.908105
0.904552
0.901013
0.897489
0.893978
0.89048
0.886996
0.883526
0.880069
0.876625
0.873193
0.869775
0.866369
0.862976
0.859595
0.856225
0.852868
0.849522
0.846188
0.842865
0.839552
0.836251
0.83296
0.82968
0.826409
0.823149
0.819898
0.816657
0.813425
0.810202
0.806988
0.803782
0.800585
0.797397
0.794216
0.791043
0.787878
0.78472
0.781569
0.778426
0.775289