/*--------------------------------*- C++ -*----------------------------------*\
| =========                 |                                                 |
| \\      /  F ield         | OpenFOAM: The Open Source CFD Toolbox           |
|  \\    /   O peration     | Version:  2306                                  |
|   \\  /    A nd           | Website:  www.openfoam.com                      |
|    \\/     M anipulation  |                                                 |
\*---------------------------------------------------------------------------*/
FoamFile
{
    version     2.0;
    format      ascii;
    arch        "LSB;label=32;scalar=64";
    class       surfaceScalarField;
    location    "0.12";
    object      phi;
}
// * * * * * * * * * * * * * * * * * * * * * * * * * * * * * * * * * * * * * //

dimensions      [0 3 -1 0 0 0 0];

oriented        oriented;

internalField   nonuniform List<scalar> 
94400
(
7.3514e-06
2.6486e-06
5.10551e-06
2.24589e-06
3.71255e-06
1.39297e-06
2.84758e-06
8.64968e-07
2.29182e-06
5.55756e-07
1.91982e-06
3.72001e-07
1.65898e-06
2.6084e-07
1.46776e-06
1.91218e-07
1.32226e-06
1.45497e-07
1.20828e-06
1.13983e-07
1.11697e-06
9.13126e-08
1.04255e-06
7.44156e-08
9.811e-07
6.14526e-08
9.29829e-07
5.12713e-08
8.8671e-07
4.31189e-08
8.50225e-07
3.64847e-08
8.19214e-07
3.10115e-08
7.92772e-07
2.6442e-08
7.70185e-07
2.25871e-08
7.5088e-07
1.93047e-08
7.34394e-07
1.64863e-08
7.20346e-07
1.40475e-08
7.08425e-07
1.19217e-08
6.98369e-07
1.00557e-08
6.89963e-07
8.40618e-09
6.83025e-07
6.93762e-09
6.77405e-07
5.62023e-09
6.72977e-07
4.42867e-09
6.69635e-07
3.34107e-09
6.67297e-07
2.33805e-09
6.65895e-07
1.40195e-09
6.65379e-07
5.16289e-10
6.65714e-07
-3.3502e-10
6.66883e-07
-1.16843e-09
6.68884e-07
-2.00169e-09
6.71739e-07
-2.85505e-09
6.75492e-07
-3.75309e-09
6.8022e-07
-4.72759e-09
6.86042e-07
-5.82228e-09
6.93143e-07
-7.10123e-09
7.01809e-07
-8.66537e-09
7.12495e-07
-1.06865e-08
7.25979e-07
-1.34836e-08
7.43682e-07
-1.77035e-08
7.68444e-07
-2.47617e-08
8.06352e-07
-3.79079e-08
8.7119e-07
-6.48378e-08
9.96071e-07
-1.24881e-07
1.26687e-06
-2.70795e-07
-6.38908e-07
1.90577e-06
1.01831e-05
2.46545e-06
9.21642e-06
3.21262e-06
7.94626e-06
2.66312e-06
6.79704e-06
2.01419e-06
5.86111e-06
1.49169e-06
5.12474e-06
1.10837e-06
4.54843e-06
8.37148e-07
4.09396e-06
6.45695e-07
3.73109e-06
5.08359e-07
3.43749e-06
4.07586e-07
3.19693e-06
3.31873e-07
2.99765e-06
2.73698e-07
2.83102e-06
2.28084e-07
2.69062e-06
1.91674e-07
2.57158e-06
1.62156e-07
2.47017e-06
1.37897e-07
2.38346e-06
1.17719e-07
2.30914e-06
1.00758e-07
2.24536e-06
8.63668e-08
2.19062e-06
7.4051e-08
2.14367e-06
6.34292e-08
2.10352e-06
5.42018e-08
2.06931e-06
4.61304e-08
2.04034e-06
3.90225e-08
2.01603e-06
3.27209e-08
1.99587e-06
2.70948e-08
1.97946e-06
2.20342e-08
1.96644e-06
1.7445e-08
1.95654e-06
1.32448e-08
1.94952e-06
9.36022e-09
1.94519e-06
5.72354e-09
1.94344e-06
2.27051e-09
1.94417e-06
-1.06262e-09
1.94734e-06
-4.34225e-09
1.95298e-06
-7.64157e-09
1.96117e-06
-1.1046e-08
1.97208e-06
-1.46614e-08
1.98598e-06
-1.86269e-08
2.00329e-06
-2.31353e-08
2.02466e-06
-2.84687e-08
2.05105e-06
-3.50605e-08
2.08398e-06
-4.36112e-08
2.12581e-06
-5.53094e-08
2.18037e-06
-7.2267e-08
2.254e-06
-9.83916e-08
2.35718e-06
-1.41092e-07
2.50682e-06
-2.14475e-07
2.72739e-06
-3.45449e-07
3.04072e-06
-5.84129e-07
-9.98703e-07
3.40052e-06
1.05345e-05
1.93093e-06
1.04951e-05
3.25202e-06
9.90361e-06
3.25463e-06
9.09171e-06
2.82609e-06
8.26039e-06
2.32301e-06
7.49876e-06
1.87e-06
6.83573e-06
1.50018e-06
6.27172e-06
1.2097e-06
5.7961e-06
9.83978e-07
5.39553e-06
8.08161e-07
5.05737e-06
6.70028e-07
4.77081e-06
5.60257e-07
4.52695e-06
4.71948e-07
4.31858e-06
4.00042e-07
4.13992e-06
3.4082e-07
3.98629e-06
2.91527e-07
3.8539e-06
2.50101e-07
3.73969e-06
2.14977e-07
3.6411e-06
1.84955e-07
3.55604e-06
1.59104e-07
3.48279e-06
1.36688e-07
3.41986e-06
1.17124e-07
3.36605e-06
9.99401e-08
3.32032e-06
8.47521e-08
3.2818e-06
7.12421e-08
3.24975e-06
5.91442e-08
3.22356e-06
4.8232e-08
3.20269e-06
3.83105e-08
3.18673e-06
2.92074e-08
3.17532e-06
2.07675e-08
3.1682e-06
1.28471e-08
3.16516e-06
5.30772e-09
3.16609e-06
-1.98892e-09
3.17093e-06
-9.18838e-09
3.17974e-06
-1.64521e-08
3.19267e-06
-2.39693e-08
3.20998e-06
-3.19745e-08
3.23213e-06
-4.07737e-08
3.25978e-06
-5.07852e-08
3.29391e-06
-6.26062e-08
3.33597e-06
-7.71223e-08
3.38806e-06
-9.56918e-08
3.45321e-06
-1.20461e-07
3.53584e-06
-1.54904e-07
3.64219e-06
-2.04733e-07
3.78043e-06
-2.79335e-07
3.95973e-06
-3.93777e-07
4.18532e-06
-5.71041e-07
4.44332e-06
-8.42121e-07
-1.22973e-06
4.67434e-06
1.04653e-05
1.46561e-06
1.07771e-05
2.94025e-06
1.06758e-05
3.3559e-06
1.02726e-05
3.22936e-06
9.71466e-06
2.8809e-06
9.10804e-06
2.47661e-06
8.51521e-06
2.09302e-06
7.96698e-06
1.75792e-06
7.47497e-06
1.47599e-06
7.04051e-06
1.24261e-06
6.66016e-06
1.05039e-06
6.32853e-06
8.91878e-07
6.0399e-06
7.60582e-07
5.78879e-06
6.51151e-07
5.5703e-06
5.59313e-07
5.38014e-06
4.81688e-07
5.21462e-06
4.15618e-07
5.07059e-06
3.59003e-07
4.94537e-06
3.10178e-07
4.83666e-06
2.67812e-07
4.74252e-06
2.30836e-07
4.66126e-06
1.98379e-07
4.59147e-06
1.69729e-07
4.53193e-06
1.44295e-07
4.48159e-06
1.21583e-07
4.43956e-06
1.01173e-07
4.40509e-06
8.27057e-08
4.37753e-06
6.5866e-08
4.35636e-06
5.03743e-08
4.34116e-06
3.5976e-08
4.33157e-06
2.24328e-08
4.32736e-06
9.51419e-09
4.32839e-06
-3.01242e-09
4.33459e-06
-1.53923e-08
4.34604e-06
-2.78978e-08
4.36291e-06
-4.08469e-08
4.38557e-06
-5.46295e-08
4.41454e-06
-6.9747e-08
4.45063e-06
-8.6869e-08
4.49494e-06
-1.06923e-07
4.54905e-06
-1.31227e-07
4.61506e-06
-1.61704e-07
4.6958e-06
-2.01198e-07
4.79485e-06
-2.53958e-07
4.91643e-06
-3.26309e-07
5.06456e-06
-4.27466e-07
5.24096e-06
-5.70183e-07
5.44031e-06
-7.70386e-07
5.64179e-06
-1.0436e-06
-1.39183e-06
5.80389e-06
1.0342e-05
1.12359e-06
1.07373e-05
2.54501e-06
1.09003e-05
3.19282e-06
1.08068e-05
3.32288e-06
1.05226e-05
3.16512e-06
1.01251e-05
2.8741e-06
9.67681e-06
2.54132e-06
9.21993e-06
2.21481e-06
8.77966e-06
1.91626e-06
8.3693e-06
1.65297e-06
7.9946e-06
1.4251e-06
7.65685e-06
1.22963e-06
7.35494e-06
1.06249e-06
7.08655e-06
9.1954e-07
6.84886e-06
7.97006e-07
6.63894e-06
6.91607e-07
6.45398e-06
6.00577e-07
6.29138e-06
5.2161e-07
6.14876e-06
4.52794e-07
6.02402e-06
3.92549e-07
5.9153e-06
3.39563e-07
5.82093e-06
2.92743e-07
5.73949e-06
2.51174e-07
5.6697e-06
2.14083e-07
5.61047e-06
1.8081e-07
5.56085e-06
1.50791e-07
5.52003e-06
1.2353e-07
5.4873e-06
9.85916e-08
5.4621e-06
7.55832e-08
5.44393e-06
5.41438e-08
5.43243e-06
3.39325e-08
5.42733e-06
1.46169e-08
5.42845e-06
-4.1395e-09
5.43575e-06
-2.2692e-08
5.44929e-06
-4.14336e-08
5.46926e-06
-6.08193e-08
5.49603e-06
-8.13994e-08
5.53015e-06
-1.03866e-07
5.5724e-06
-1.29121e-07
5.62385e-06
-1.58369e-07
5.68588e-06
-1.93255e-07
5.76023e-06
-2.36059e-07
5.84899e-06
-2.89956e-07
5.95438e-06
-3.59349e-07
6.07831e-06
-4.50242e-07
6.22134e-06
-5.7049e-07
6.38072e-06
-7.2957e-07
6.54752e-06
-9.37183e-07
6.70338e-06
-1.19947e-06
-1.51083e-06
6.82239e-06
1.02416e-05
8.81944e-07
1.06171e-05
2.16958e-06
1.08951e-05
2.91476e-06
1.09957e-05
3.22233e-06
1.09249e-05
3.23594e-06
1.07229e-05
3.07607e-06
1.04357e-05
2.82848e-06
1.01025e-05
2.54802e-06
9.75214e-06
2.26663e-06
9.40402e-06
2.00109e-06
9.07021e-06
1.75891e-06
8.7575e-06
1.54233e-06
8.46922e-06
1.35077e-06
8.20642e-06
1.18234e-06
7.96883e-06
1.0346e-06
7.75539e-06
9.05056e-07
7.56461e-06
7.91355e-07
7.39485e-06
6.91363e-07
7.24444e-06
6.03204e-07
7.11174e-06
5.25249e-07
6.99522e-06
4.56091e-07
6.89344e-06
3.94522e-07
6.80511e-06
3.39497e-07
6.72908e-06
2.90116e-07
6.6643e-06
2.45592e-07
6.60985e-06
2.0524e-07
6.56493e-06
1.68449e-07
6.52885e-06
1.34672e-07
6.50102e-06
1.03411e-07
6.48096e-06
7.42026e-08
6.46829e-06
4.66049e-08
6.46272e-06
2.0184e-08
6.46409e-06
-5.50054e-09
6.47231e-06
-3.09138e-08
6.48744e-06
-5.6567e-08
6.50967e-06
-8.3045e-08
6.53931e-06
-1.11044e-07
6.57686e-06
-1.41418e-07
6.62299e-06
-1.75251e-07
6.67856e-06
-2.1394e-07
6.74463e-06
-2.59317e-07
6.82236e-06
-3.13797e-07
6.91297e-06
-3.8056e-07
7.01734e-06
-4.63724e-07
7.13556e-06
-5.68465e-07
7.26598e-06
-7.00907e-07
7.40392e-06
-8.67509e-07
7.54029e-06
-1.07355e-06
7.66104e-06
-1.32022e-06
-1.60016e-06
7.75037e-06
1.01728e-05
7.09194e-07
1.0498e-05
1.84432e-06
1.08084e-05
2.60438e-06
1.10139e-05
3.01684e-06
1.10882e-05
3.1616e-06
1.10418e-05
3.12246e-06
1.09008e-05
2.96947e-06
1.06943e-05
2.75461e-06
1.04478e-05
2.51313e-06
1.01816e-05
2.26728e-06
9.91043e-06
2.03005e-06
9.64444e-06
1.80832e-06
9.39013e-06
1.60509e-06
9.15139e-06
1.42107e-06
8.93031e-06
1.25568e-06
8.72771e-06
1.10766e-06
8.5436e-06
9.75464e-07
8.37749e-06
8.57478e-07
8.22856e-06
7.52129e-07
8.09586e-06
6.5795e-07
7.97835e-06
5.73605e-07
7.87498e-06
4.97893e-07
7.78474e-06
4.29738e-07
7.70667e-06
3.68183e-07
7.63989e-06
3.12372e-07
7.58359e-06
2.61537e-07
7.53705e-06
2.14984e-07
7.49965e-06
1.7208e-07
7.47082e-06
1.32236e-07
7.45012e-06
9.49019e-08
7.43718e-06
5.95438e-08
7.43173e-06
2.5636e-08
7.43359e-06
-7.3576e-09
7.44268e-06
-4.00016e-08
7.45902e-06
-7.29123e-08
7.48276e-06
-1.06786e-07
7.51416e-06
-1.42437e-07
7.55358e-06
-1.80841e-07
7.60153e-06
-2.23198e-07
7.65859e-06
-2.71007e-07
7.72543e-06
-3.26152e-07
7.80264e-06
-3.91008e-07
7.89061e-06
-4.68531e-07
7.98921e-06
-5.6232e-07
8.0973e-06
-6.7656e-07
8.21214e-06
-8.15743e-07
8.32861e-06
-9.83984e-07
8.43881e-06
-1.18375e-06
8.53253e-06
-1.41394e-06
-1.66758e-06
8.59995e-06
1.01274e-05
5.81803e-07
1.04004e-05
1.57133e-06
1.07033e-05
2.30151e-06
1.09558e-05
2.76431e-06
1.1119e-05
2.99834e-06
1.11846e-05
3.05689e-06
1.1162e-05
2.99211e-06
1.10686e-05
2.84794e-06
1.09238e-05
2.65798e-06
1.07449e-05
2.44615e-06
1.05465e-05
2.22849e-06
1.03397e-05
2.01514e-06
1.01327e-05
1.81207e-06
9.93128e-06
1.62246e-06
9.73933e-06
1.44763e-06
9.55924e-06
1.28775e-06
9.39237e-06
1.14233e-06
9.23935e-06
1.0105e-06
9.10029e-06
8.91187e-07
8.97496e-06
7.83278e-07
8.86291e-06
6.85652e-07
8.76357e-06
5.97239e-07
8.67628e-06
5.17029e-07
8.60037e-06
4.44089e-07
8.53519e-06
3.77553e-07
8.4801e-06
3.16623e-07
8.43453e-06
2.60561e-07
8.39793e-06
2.08676e-07
8.36985e-06
1.60318e-07
8.34988e-06
1.14867e-07
8.33771e-06
7.1718e-08
8.33308e-06
3.02676e-08
8.33582e-06
-1.00994e-08
8.34585e-06
-5.00302e-08
8.36316e-06
-9.02262e-08
8.38785e-06
-1.3147e-07
8.42007e-06
-1.74657e-07
8.46007e-06
-2.20841e-07
8.50814e-06
-2.71276e-07
8.56462e-06
-3.27478e-07
8.62975e-06
-3.91283e-07
8.70364e-06
-4.64902e-07
8.78606e-06
-5.50949e-07
8.87616e-06
-6.52421e-07
8.97216e-06
-7.72557e-07
9.07092e-06
-9.14505e-07
9.16765e-06
-1.08072e-06
9.25593e-06
-1.27202e-06
9.32839e-06
-1.4864e-06
-1.71791e-06
9.37872e-06
1.00972e-05
4.8461e-07
1.03247e-05
1.34381e-06
1.06037e-05
2.02249e-06
1.08694e-05
2.49866e-06
1.10812e-05
2.78649e-06
1.12212e-05
2.91694e-06
1.12872e-05
2.92607e-06
1.12869e-05
2.84824e-06
1.12324e-05
2.71256e-06
1.11366e-05
2.54186e-06
1.10121e-05
2.35305e-06
1.08692e-05
2.15801e-06
1.07165e-05
1.96474e-06
1.05607e-05
1.77835e-06
1.04065e-05
1.60184e-06
1.02574e-05
1.43677e-06
1.0116e-05
1.28374e-06
9.98379e-06
1.14274e-06
9.86166e-06
1.01332e-06
9.75011e-06
8.94826e-07
9.64928e-06
7.86481e-07
9.55908e-06
6.87438e-07
9.47926e-06
5.96846e-07
9.40949e-06
5.13863e-07
9.34936e-06
4.37678e-07
9.29847e-06
3.67514e-07
9.25641e-06
3.02628e-07
9.22277e-06
2.42311e-07
9.19721e-06
1.85878e-07
9.17941e-06
1.32667e-07
9.16911e-06
8.20208e-08
9.16609e-06
3.32826e-08
9.17022e-06
-1.42227e-08
9.18139e-06
-6.12032e-08
9.19959e-06
-1.08421e-07
9.22483e-06
-1.56714e-07
9.2572e-06
-2.07028e-07
9.29681e-06
-2.60447e-07
9.34376e-06
-3.18227e-07
9.39812e-06
-3.81839e-07
9.45984e-06
-4.52999e-07
9.52862e-06
-5.33687e-07
9.60381e-06
-6.26135e-07
9.68414e-06
-7.32757e-07
9.76756e-06
-8.55978e-07
9.85099e-06
-9.97926e-07
9.93021e-06
-1.15995e-06
1.00002e-05
-1.34196e-06
1.00555e-05
-1.54173e-06
-1.75438e-06
1.00919e-05
1.00765e-05
4.08139e-07
1.02668e-05
1.1535e-06
1.05172e-05
1.77203e-06
1.07777e-05
2.23821e-06
1.10115e-05
2.5527e-06
1.1197e-05
2.73142e-06
1.13254e-05
2.79768e-06
1.13969e-05
2.77671e-06
1.14174e-05
2.69208e-06
1.13953e-05
2.56394e-06
1.13399e-05
2.40842e-06
1.12601e-05
2.23785e-06
1.11636e-05
2.06127e-06
1.10569e-05
1.88504e-06
1.09453e-05
1.71344e-06
1.08328e-05
1.54922e-06
1.07226e-05
1.39396e-06
1.06169e-05
1.24848e-06
1.05172e-05
1.11301e-06
1.04246e-05
9.87401e-07
1.03398e-05
8.71276e-07
1.02632e-05
7.6409e-07
1.01948e-05
6.65208e-07
1.01347e-05
5.73943e-07
1.00828e-05
4.8959e-07
1.00389e-05
4.11438e-07
1.00027e-05
3.38783e-07
9.9741e-06
2.70927e-07
9.9528e-06
2.07187e-07
9.93858e-06
1.4688e-07
9.93128e-06
8.93265e-08
9.93072e-06
3.38362e-08
9.9368e-06
-2.03016e-08
9.94943e-06
-7.38323e-08
9.96856e-06
-1.27552e-07
9.99418e-06
-1.82329e-07
1.00263e-05
-2.39123e-07
1.00648e-05
-2.99011e-07
1.01098e-05
-3.63211e-07
1.01611e-05
-4.33105e-07
1.02183e-05
-5.10249e-07
1.0281e-05
-5.96368e-07
1.03482e-05
-6.9332e-07
1.04184e-05
-8.03003e-07
1.04897e-05
-9.2719e-07
1.0559e-05
-1.06727e-06
1.06229e-05
-1.22388e-06
1.06775e-05
-1.39648e-06
1.07187e-05
-1.58293e-06
-1.77929e-06
1.07436e-05
1.00618e-05
3.46388e-07
1.02223e-05
9.92978e-07
1.04446e-05
1.54967e-06
1.06909e-05
1.99189e-06
1.09301e-05
2.31355e-06
1.11405e-05
2.52098e-06
1.13101e-05
2.62813e-06
1.14343e-05
2.65254e-06
1.1514e-05
2.61232e-06
1.15538e-05
2.5242e-06
1.15596e-05
2.40262e-06
1.15381e-05
2.25933e-06
1.14958e-05
2.10359e-06
1.14384e-05
1.94237e-06
1.13711e-05
1.78077e-06
1.12979e-05
1.62239e-06
1.12223e-05
1.46962e-06
1.11467e-05
1.324e-06
1.10734e-05
1.18638e-06
1.10036e-05
1.05714e-06
1.09386e-05
9.36305e-07
1.0879e-05
8.23659e-07
1.08254e-05
7.18825e-07
1.0778e-05
6.21312e-07
1.07371e-05
5.30558e-07
1.07025e-05
4.45956e-07
1.06745e-05
3.66871e-07
1.06527e-05
2.92654e-07
1.06373e-05
2.22643e-07
1.0628e-05
1.56169e-07
1.06248e-05
9.25489e-08
1.06275e-05
3.10848e-08
1.06362e-05
-2.8947e-08
1.06506e-05
-8.83056e-08
1.06709e-05
-1.47798e-07
1.06968e-05
-2.08292e-07
1.07285e-05
-2.70736e-07
1.07656e-05
-3.36172e-07
1.08082e-05
-4.05749e-07
1.08558e-05
-4.80734e-07
1.0908e-05
-5.62506e-07
1.09642e-05
-6.52541e-07
1.10232e-05
-7.52354e-07
1.10837e-05
-8.63413e-07
1.11435e-05
-9.86992e-07
1.12002e-05
-1.12396e-06
1.12508e-05
-1.27452e-06
1.12922e-05
-1.43792e-06
1.13216e-05
-1.61225e-06
-1.79433e-06
1.13366e-05
1.00509e-05
2.95442e-07
1.01877e-05
8.56248e-07
1.03845e-05
1.35285e-06
1.0613e-05
1.76335e-06
1.08478e-05
2.07875e-06
1.10692e-05
2.29964e-06
1.12639e-05
2.43345e-06
1.14247e-05
2.49172e-06
1.15493e-05
2.48772e-06
1.16387e-05
2.43475e-06
1.16963e-05
2.34505e-06
1.17264e-05
2.22923e-06
1.17339e-05
2.09612e-06
1.17235e-05
1.95277e-06
1.16996e-05
1.80465e-06
1.16661e-05
1.65587e-06
1.16263e-05
1.50942e-06
1.1583e-05
1.36738e-06
1.15382e-05
1.23114e-06
1.14938e-05
1.10152e-06
1.14512e-05
9.78956e-07
1.14113e-05
8.63548e-07
1.13749e-05
7.55187e-07
1.13426e-05
6.53595e-07
1.13148e-05
5.58376e-07
1.12917e-05
4.6905e-07
1.12735e-05
3.85079e-07
1.12603e-05
3.05882e-07
1.12521e-05
2.30849e-07
1.12489e-05
1.59342e-07
1.12508e-05
9.06997e-08
1.12576e-05
2.4237e-08
1.12694e-05
-4.07611e-08
1.12862e-05
-1.05045e-07
1.13078e-05
-1.6941e-07
1.13342e-05
-2.34705e-07
1.13653e-05
-3.0184e-07
1.14009e-05
-3.71801e-07
1.14408e-05
-4.4565e-07
1.14846e-05
-5.24525e-07
1.15317e-05
-6.09632e-07
1.15814e-05
-7.0221e-07
1.16325e-05
-8.03482e-07
1.16837e-05
-9.14571e-07
1.17331e-05
-1.03637e-06
1.17785e-05
-1.1694e-06
1.18176e-05
-1.3136e-06
1.18478e-05
-1.46817e-06
1.1867e-05
-1.63143e-06
-1.80083e-06
1.18735e-05
1.00428e-05
2.52649e-07
1.01605e-05
7.38583e-07
1.03349e-05
1.17841e-06
1.05449e-05
1.55335e-06
1.07701e-05
1.85358e-06
1.09932e-05
2.07651e-06
1.12014e-05
2.22523e-06
1.13863e-05
2.30683e-06
1.15434e-05
2.33062e-06
1.16714e-05
2.30676e-06
1.17712e-05
2.24523e-06
1.18453e-05
2.15518e-06
1.18967e-05
2.04463e-06
1.19292e-05
1.92029e-06
1.19462e-05
1.78764e-06
1.19511e-05
1.65102e-06
1.19468e-05
1.51374e-06
1.19359e-05
1.37826e-06
1.19206e-05
1.24637e-06
1.19029e-05
1.11927e-06
1.18842e-05
9.97708e-07
1.18656e-05
8.82103e-07
1.18482e-05
7.72589e-07
1.18327e-05
6.691e-07
1.18197e-05
5.71411e-07
1.18095e-05
4.79183e-07
1.18026e-05
3.91987e-07
1.17992e-05
3.0933e-07
1.17993e-05
2.30667e-07
1.18033e-05
1.5541e-07
1.1811e-05
8.29404e-08
1.18227e-05
1.26026e-08
1.18382e-05
-5.62908e-08
1.18576e-05
-1.24463e-07
1.18809e-05
-1.92679e-07
1.19079e-05
-2.61748e-07
1.19386e-05
-3.32529e-07
1.19728e-05
-4.05934e-07
1.201e-05
-4.82929e-07
1.205e-05
-5.64522e-07
1.20921e-05
-6.5175e-07
1.21356e-05
-7.45645e-07
1.21793e-05
-8.47185e-07
1.22219e-05
-9.57216e-07
1.22619e-05
-1.07636e-06
1.22974e-05
-1.2049e-06
1.23264e-05
-1.34262e-06
1.2347e-05
-1.48875e-06
1.23574e-05
-1.64185e-06
-1.79982e-06
1.23564e-05
1.00365e-05
2.16147e-07
1.01388e-05
6.36298e-07
1.0294e-05
1.02324e-06
1.04861e-05
1.36117e-06
1.06992e-05
1.64056e-06
1.09185e-05
1.85722e-06
1.11322e-05
2.01151e-06
1.13316e-05
2.10736e-06
1.15113e-05
2.15101e-06
1.16681e-05
2.14993e-06
1.18013e-05
2.11201e-06
1.19116e-05
2.04485e-06
1.20008e-05
1.95544e-06
1.20712e-05
1.84992e-06
1.21253e-05
1.7335e-06
1.21659e-05
1.61046e-06
1.21954e-05
1.48425e-06
1.22161e-05
1.35755e-06
1.22301e-05
1.23237e-06
1.22392e-05
1.11019e-06
1.22448e-05
9.9204e-07
1.22484e-05
8.78561e-07
1.22509e-05
7.70115e-07
1.22531e-05
6.66825e-07
1.22559e-05
5.68632e-07
1.22598e-05
4.75334e-07
1.22651e-05
3.86617e-07
1.22724e-05
3.02082e-07
1.22818e-05
2.21262e-07
1.22936e-05
1.43633e-07
1.23079e-05
6.8627e-08
1.23248e-05
-4.3633e-09
1.23445e-05
-7.59838e-08
1.2367e-05
-1.46916e-07
1.23922e-05
-2.1788e-07
1.24201e-05
-2.8963e-07
1.24505e-05
-3.62963e-07
1.24833e-05
-4.3871e-07
1.25181e-05
-5.17734e-07
1.25545e-05
-6.00918e-07
1.25919e-05
-6.89144e-07
1.26295e-05
-7.83264e-07
1.26664e-05
-8.84052e-07
1.27013e-05
-9.92144e-07
1.27329e-05
-1.10796e-06
1.27596e-05
-1.23162e-06
1.27798e-05
-1.36285e-06
1.2792e-05
-1.50092e-06
1.27948e-05
-1.64459e-06
-1.79216e-06
1.27871e-05
1.00316e-05
1.84585e-07
1.01214e-05
5.46499e-07
1.02601e-05
8.84467e-07
1.04359e-05
1.18537e-06
1.0636e-05
1.44049e-06
1.08482e-05
1.64499e-06
1.10621e-05
1.79765e-06
1.12692e-05
1.90024e-06
1.14635e-05
1.95668e-06
1.16412e-05
1.97231e-06
1.18e-05
1.95315e-06
1.19395e-05
1.90536e-06
1.20601e-05
1.83483e-06
1.21631e-05
1.74697e-06
1.225e-05
1.64654e-06
1.23229e-05
1.53761e-06
1.23836e-05
1.42355e-06
1.2434e-05
1.30709e-06
1.2476e-05
1.19037e-06
1.25112e-05
1.07504e-06
1.25409e-05
9.62293e-07
1.25665e-05
8.52962e-07
1.25891e-05
7.47578e-07
1.26095e-05
6.46426e-07
1.26285e-05
5.49591e-07
1.26469e-05
4.56997e-07
1.2665e-05
3.68439e-07
1.26835e-05
2.83614e-07
1.27026e-05
2.02133e-07
1.27227e-05
1.23545e-07
1.2744e-05
4.73436e-08
1.27667e-05
-2.70242e-08
1.27908e-05
-1.00151e-07
1.28166e-05
-1.72665e-07
1.28439e-05
-2.4523e-07
1.28728e-05
-3.1854e-07
1.29032e-05
-3.93318e-07
1.29348e-05
-4.7031e-07
1.29673e-05
-5.50278e-07
1.30004e-05
-6.33985e-07
1.30334e-05
-7.22176e-07
1.30657e-05
-8.15547e-07
1.30964e-05
-9.14708e-07
1.31244e-05
-1.02013e-06
1.31485e-05
-1.13209e-06
1.31675e-05
-1.2506e-06
1.318e-05
-1.37536e-06
1.31848e-05
-1.5057e-06
1.31807e-05
-1.64056e-06
-1.77855e-06
1.31671e-05
1.00276e-05
1.56952e-07
1.01072e-05
4.66887e-07
1.02321e-05
7.59588e-07
1.03933e-05
1.02424e-06
1.05806e-05
1.25314e-06
1.07841e-05
1.44144e-06
1.09948e-05
1.58703e-06
1.12047e-05
1.69029e-06
1.14079e-05
1.7535e-06
1.15999e-05
1.78032e-06
1.17778e-05
1.77522e-06
1.19401e-05
1.74305e-06
1.20863e-05
1.68866e-06
1.22166e-05
1.61668e-06
1.23318e-05
1.53132e-06
1.24331e-05
1.43628e-06
1.25219e-05
1.33475e-06
1.25996e-05
1.22938e-06
1.26677e-05
1.12233e-06
1.27274e-05
1.01527e-06
1.27802e-05
9.09527e-07
1.28271e-05
8.06033e-07
1.28693e-05
7.05443e-07
1.29075e-05
6.08164e-07
1.29427e-05
5.14394e-07
1.29756e-05
4.24165e-07
1.30066e-05
3.37371e-07
1.30364e-05
2.53792e-07
1.30655e-05
1.73123e-07
1.3094e-05
9.49808e-08
1.31224e-05
1.89248e-08
1.3151e-05
-5.55363e-08
1.31797e-05
-1.28936e-07
1.32089e-05
-2.01843e-07
1.32385e-05
-2.74857e-07
1.32686e-05
-3.48606e-07
1.3299e-05
-4.23735e-07
1.33296e-05
-5.00905e-07
1.33601e-05
-5.8078e-07
1.33901e-05
-6.64012e-07
1.34192e-05
-7.51223e-07
1.34466e-05
-8.42978e-07
1.34717e-05
-9.39753e-07
1.34934e-05
-1.04189e-06
1.35109e-05
-1.14957e-06
1.3523e-05
-1.26272e-06
1.35287e-05
-1.38105e-06
1.3527e-05
-1.50394e-06
1.35169e-05
-1.63051e-06
-1.75957e-06
1.34979e-05
1.00245e-05
1.32469e-07
1.00958e-05
3.95614e-07
1.02089e-05
6.46405e-07
1.03572e-05
8.75996e-07
1.05326e-05
1.07775e-06
1.07269e-05
1.24711e-06
1.09323e-05
1.38161e-06
1.11418e-05
1.48077e-06
1.13496e-05
1.54574e-06
1.1551e-05
1.57891e-06
1.17427e-05
1.58353e-06
1.19224e-05
1.56331e-06
1.20889e-05
1.52218e-06
1.22417e-05
1.46396e-06
1.23807e-05
1.39228e-06
1.25065e-05
1.31043e-06
1.262e-05
1.2213e-06
1.2722e-05
1.12736e-06
1.28137e-05
1.03067e-06
1.28961e-05
9.32896e-07
1.29702e-05
8.35364e-07
1.30372e-05
7.39068e-07
1.30979e-05
6.44728e-07
1.31532e-05
5.52827e-07
1.3204e-05
4.63645e-07
1.32509e-05
3.77296e-07
1.32945e-05
2.93751e-07
1.33354e-05
2.1287e-07
1.33741e-05
1.34415e-07
1.3411e-05
5.80729e-08
1.34465e-05
-1.65336e-08
1.34808e-05
-8.98328e-08
1.35141e-05
-1.62296e-07
1.35467e-05
-2.34429e-07
1.35786e-05
-3.06766e-07
1.36099e-05
-3.79862e-07
1.36404e-05
-4.54287e-07
1.36701e-05
-5.30618e-07
1.36988e-05
-6.09423e-07
1.3726e-05
-6.91256e-07
1.37514e-05
-7.76629e-07
1.37745e-05
-8.65997e-07
1.37944e-05
-9.59725e-07
1.38106e-05
-1.05806e-06
1.38221e-05
-1.16109e-06
1.38281e-05
-1.26873e-06
1.38277e-05
-1.38066e-06
1.38201e-05
-1.49635e-06
1.38047e-05
-1.61502e-06
-1.7357e-06
1.37808e-05
1.00219e-05
1.10522e-07
1.00864e-05
3.31165e-07
1.01898e-05
5.43014e-07
1.03269e-05
7.38889e-07
1.04914e-05
9.13197e-07
1.06767e-05
1.06184e-06
1.0876e-05
1.18233e-06
1.10831e-05
1.27371e-06
1.12924e-05
1.33636e-06
1.14996e-05
1.37179e-06
1.17008e-05
1.38228e-06
1.18935e-05
1.37063e-06
1.20758e-05
1.3399e-06
1.22465e-05
1.29322e-06
1.24052e-05
1.23363e-06
1.25517e-05
1.16393e-06
1.26863e-05
1.08669e-06
1.28095e-05
1.00413e-06
1.2922e-05
9.18133e-07
1.30246e-05
8.30284e-07
1.31182e-05
7.41846e-07
1.32034e-05
6.53808e-07
1.32812e-05
5.66905e-07
1.33524e-05
4.81654e-07
1.34177e-05
3.98382e-07
1.34777e-05
3.17257e-07
1.35332e-05
2.38309e-07
1.35846e-05
1.61455e-07
1.36325e-05
8.65196e-08
1.36773e-05
1.32484e-08
1.37194e-05
-5.86749e-08
1.37592e-05
-1.29618e-07
1.37969e-05
-1.99991e-07
1.38327e-05
-2.70235e-07
1.38668e-05
-3.40819e-07
1.38991e-05
-4.12227e-07
1.39298e-05
-4.84952e-07
1.39587e-05
-5.5949e-07
1.39856e-05
-6.36324e-07
1.40102e-05
-7.15914e-07
1.40323e-05
-7.98677e-07
1.40513e-05
-8.84974e-07
1.40666e-05
-9.75079e-07
1.40777e-05
-1.06916e-06
1.40839e-05
-1.16725e-06
1.40844e-05
-1.26924e-06
1.40785e-05
-1.37481e-06
1.40657e-05
-1.4835e-06
1.40453e-05
-1.59462e-06
-1.70736e-06
1.40169e-05
1.00199e-05
9.06174e-08
1.00788e-05
2.7228e-07
1.01741e-05
4.4775e-07
1.03017e-05
6.11267e-07
1.04567e-05
7.5821e-07
1.06335e-05
8.85045e-07
1.08264e-05
9.89427e-07
1.10299e-05
1.07021e-06
1.12389e-05
1.12733e-06
1.14491e-05
1.16164e-06
1.16566e-05
1.17471e-06
1.18587e-05
1.16859e-06
1.20529e-05
1.14564e-06
1.22378e-05
1.10834e-06
1.24123e-05
1.05915e-06
1.25758e-05
1.00044e-06
1.27281e-05
9.34365e-07
1.28694e-05
8.62868e-07
1.29999e-05
7.87625e-07
1.31201e-05
7.10051e-07
1.32306e-05
6.31309e-07
1.33321e-05
5.52324e-07
1.34252e-05
4.73801e-07
1.35106e-05
3.96251e-07
1.3589e-05
3.20013e-07
1.3661e-05
2.45279e-07
1.37272e-05
1.72116e-07
1.37881e-05
1.00482e-07
1.38444e-05
3.02474e-08
1.38965e-05
-3.87896e-08
1.39447e-05
-1.06893e-07
1.39894e-05
-1.74373e-07
1.4031e-05
-2.41583e-07
1.40697e-05
-3.08901e-07
1.41056e-05
-3.76731e-07
1.41389e-05
-4.45488e-07
1.41695e-05
-5.15594e-07
1.41975e-05
-5.87467e-07
1.42227e-05
-6.61509e-07
1.42448e-05
-7.38096e-07
1.42637e-05
-8.17564e-07
1.4279e-05
-9.0019e-07
1.429e-05
-9.86175e-07
1.42965e-05
-1.07562e-06
1.42978e-05
-1.16853e-06
1.42933e-05
-1.26475e-06
1.42825e-05
-1.364e-06
1.42648e-05
-1.46585e-06
1.42399e-05
-1.5697e-06
-1.67486e-06
1.42074e-05
1.00183e-05
7.23446e-08
1.00727e-05
2.17892e-07
1.01613e-05
3.59148e-07
1.0281e-05
4.91573e-07
1.04277e-05
6.11446e-07
1.05969e-05
7.15823e-07
1.07837e-05
8.02639e-07
1.09832e-05
8.70735e-07
1.11907e-05
9.19805e-07
1.14021e-05
9.50285e-07
1.16136e-05
9.63203e-07
1.18222e-05
9.60031e-07
1.20253e-05
9.4253e-07
1.2221e-05
9.12616e-07
1.24079e-05
8.72241e-07
1.2585e-05
8.23305e-07
1.27518e-05
7.6759e-07
1.2908e-05
7.0671e-07
1.30535e-05
6.42086e-07
1.31886e-05
5.74938e-07
1.33136e-05
5.0628e-07
1.3429e-05
4.36928e-07
1.35353e-05
3.67518e-07
1.36331e-05
2.98516e-07
1.37228e-05
2.30244e-07
1.38052e-05
1.62892e-07
1.38808e-05
9.65384e-08
1.39501e-05
3.11662e-08
1.40137e-05
-3.3321e-08
1.4072e-05
-9.70866e-08
1.41254e-05
-1.60348e-07
1.41744e-05
-2.23368e-07
1.42193e-05
-2.86443e-07
1.42603e-05
-3.49895e-07
1.42976e-05
-4.14064e-07
1.43314e-05
-4.79302e-07
1.43618e-05
-5.4596e-07
1.43887e-05
-6.14385e-07
1.44121e-05
-6.84904e-07
1.44318e-05
-7.5782e-07
1.44477e-05
-8.33394e-07
1.44593e-05
-9.11832e-07
1.44664e-05
-9.93273e-07
1.44685e-05
-1.07777e-06
1.44653e-05
-1.16529e-06
1.44562e-05
-1.25566e-06
1.44408e-05
-1.34862e-06
1.44187e-05
-1.44377e-06
1.43896e-05
-1.5406e-06
-1.6385e-06
1.43533e-05
1.0017e-05
5.53581e-08
1.00678e-05
1.67078e-07
1.0151e-05
2.759e-07
1.02643e-05
3.78352e-07
1.04042e-05
4.7154e-07
1.05669e-05
5.53118e-07
1.07481e-05
6.21372e-07
1.09436e-05
6.75256e-07
1.11491e-05
7.14372e-07
1.13605e-05
7.38892e-07
1.15742e-05
7.49467e-07
1.17871e-05
7.47113e-07
1.19965e-05
7.33103e-07
1.22003e-05
7.0886e-07
1.23967e-05
6.75867e-07
1.25844e-05
6.35592e-07
1.27625e-05
5.8943e-07
1.29306e-05
5.38663e-07
1.30882e-05
4.84435e-07
1.32354e-05
4.27735e-07
1.33723e-05
3.69394e-07
1.34992e-05
3.10088e-07
1.36163e-05
2.50348e-07
1.37243e-05
1.90568e-07
1.38235e-05
1.31021e-07
1.39145e-05
7.18712e-08
1.39979e-05
1.31902e-08
1.40741e-05
-4.5032e-08
1.41436e-05
-1.02873e-07
1.4207e-05
-1.60469e-07
1.42647e-05
-2.17999e-07
1.4317e-05
-2.75684e-07
1.43643e-05
-3.33771e-07
1.44069e-05
-3.92528e-07
1.44451e-05
-4.52239e-07
1.4479e-05
-5.13193e-07
1.45087e-05
-5.75677e-07
1.45343e-05
-6.39972e-07
1.45557e-05
-7.06337e-07
1.45729e-05
-7.75007e-07
1.45857e-05
-8.46177e-07
1.45939e-05
-9.19993e-07
1.45971e-05
-9.96539e-07
1.45952e-05
-1.07583e-06
1.45877e-05
-1.15779e-06
1.45743e-05
-1.24225e-06
1.45546e-05
-1.32896e-06
1.45284e-05
-1.41756e-06
1.44954e-05
-1.50757e-06
-1.59848e-06
1.44554e-05
1.0016e-05
3.93579e-08
1.00641e-05
1.19023e-07
1.01431e-05
1.96822e-07
1.02512e-05
2.70236e-07
1.03857e-05
3.37135e-07
1.0543e-05
3.95763e-07
1.07196e-05
4.448e-07
1.09114e-05
4.83395e-07
1.11147e-05
5.1116e-07
1.13254e-05
5.28125e-07
1.15402e-05
5.34673e-07
1.17559e-05
5.3147e-07
1.19696e-05
5.19385e-07
1.2179e-05
4.99414e-07
1.23823e-05
4.72613e-07
1.25778e-05
4.40042e-07
1.27645e-05
4.02722e-07
1.29416e-05
3.61598e-07
1.31085e-05
3.17519e-07
1.3265e-05
2.71224e-07
1.34111e-05
2.23338e-07
1.35468e-05
1.74371e-07
1.36724e-05
1.24721e-07
1.37883e-05
7.46854e-08
1.38949e-05
2.44662e-08
1.39926e-05
-2.58173e-08
1.40819e-05
-7.61197e-08
1.41633e-05
-1.26459e-07
1.42373e-05
-1.76906e-07
1.43044e-05
-2.27578e-07
1.43651e-05
-2.78627e-07
1.44196e-05
-3.30237e-07
1.44685e-05
-3.82612e-07
1.45119e-05
-4.35972e-07
1.45502e-05
-4.90547e-07
1.45836e-05
-5.46569e-07
1.46122e-05
-6.04266e-07
1.46361e-05
-6.63857e-07
1.46553e-05
-7.25539e-07
1.46697e-05
-7.89486e-07
1.46794e-05
-8.55834e-07
1.46841e-05
-9.24676e-07
1.46836e-05
-9.9605e-07
1.46777e-05
-1.06993e-06
1.46661e-05
-1.14622e-06
1.46486e-05
-1.22475e-06
1.46249e-05
-1.30527e-06
1.45948e-05
-1.38743e-06
1.45581e-05
-1.47083e-06
-1.555e-06
1.45146e-05
1.00153e-05
2.40773e-08
1.00613e-05
7.29918e-08
1.01373e-05
1.20827e-07
1.02416e-05
1.65928e-07
1.03719e-05
2.06888e-07
1.05251e-05
2.42528e-07
1.0698e-05
2.71944e-07
1.08868e-05
2.94532e-07
1.1088e-05
3.09985e-07
1.12978e-05
3.18268e-07
1.15129e-05
3.19581e-07
1.17301e-05
3.14315e-07
1.19465e-05
3.02996e-07
1.21596e-05
2.86247e-07
1.23675e-05
2.64734e-07
1.25684e-05
2.39133e-07
1.27611e-05
2.10097e-07
1.29444e-05
1.78235e-07
1.31178e-05
1.44096e-07
1.32809e-05
1.08156e-07
1.34334e-05
7.08145e-08
1.35754e-05
3.23968e-08
1.3707e-05
-6.84803e-09
1.38284e-05
-4.67404e-08
1.394e-05
-8.71653e-08
1.40423e-05
-1.28065e-07
1.41356e-05
-1.69434e-07
1.42205e-05
-2.11309e-07
1.42973e-05
-2.53765e-07
1.43666e-05
-2.9691e-07
1.44289e-05
-3.40876e-07
1.44845e-05
-3.85814e-07
1.45337e-05
-4.31892e-07
1.45771e-05
-4.79286e-07
1.46147e-05
-5.28176e-07
1.46469e-05
-5.78742e-07
1.46738e-05
-6.31157e-07
1.46955e-05
-6.85582e-07
1.47121e-05
-7.42161e-07
1.47236e-05
-8.01009e-07
1.473e-05
-8.62211e-07
1.47311e-05
-9.25811e-07
1.47269e-05
-9.91808e-07
1.47171e-05
-1.06014e-06
1.47016e-05
-1.1307e-06
1.46801e-05
-1.2033e-06
1.46526e-05
-1.27769e-06
1.46187e-05
-1.35357e-06
1.45784e-05
-1.43054e-06
-1.50819e-06
1.45316e-05
1.00148e-05
9.27247e-09
1.00595e-05
2.8305e-08
1.01334e-05
4.68909e-08
1.02352e-05
6.41882e-08
1.03626e-05
7.9477e-08
1.0513e-05
9.21487e-08
1.06832e-05
1.01728e-07
1.08698e-05
1.07886e-07
1.10694e-05
1.10439e-07
1.12783e-05
1.09339e-07
1.14932e-05
1.04654e-07
1.1711e-05
9.65478e-08
1.19287e-05
8.52524e-08
1.21439e-05
7.10471e-08
1.23544e-05
5.4235e-08
1.25584e-05
3.51237e-08
1.27545e-05
1.40102e-08
1.29416e-05
-8.83144e-09
1.31189e-05
-3.31586e-08
1.32858e-05
-5.87651e-08
1.34421e-05
-8.54845e-08
1.35877e-05
-1.1319e-07
1.37226e-05
-1.41795e-07
1.38471e-05
-1.71248e-07
1.39615e-05
-2.01534e-07
1.40661e-05
-2.32668e-07
1.41613e-05
-2.64691e-07
1.42477e-05
-2.9767e-07
1.43256e-05
-3.31691e-07
1.43956e-05
-3.66858e-07
1.4458e-05
-4.03287e-07
1.45133e-05
-4.41105e-07
1.45618e-05
-4.80444e-07
1.4604e-05
-5.21441e-07
1.464e-05
-5.64232e-07
1.46702e-05
-6.08947e-07
1.46948e-05
-6.55709e-07
1.47138e-05
-7.04626e-07
1.47275e-05
-7.55789e-07
1.47357e-05
-8.09265e-07
1.47386e-05
-8.65091e-07
1.47361e-05
-9.23267e-07
1.4728e-05
-9.83757e-07
1.47143e-05
-1.04647e-06
1.46949e-05
-1.11128e-06
1.46696e-05
-1.17799e-06
1.46383e-05
-1.24636e-06
1.46008e-05
-1.31609e-06
1.45571e-05
-1.38684e-06
-1.45821e-06
1.45071e-05
1.00146e-05
-5.28588e-09