/*--------------------------------*- C++ -*----------------------------------*\
| =========                 |                                                 |
| \\      /  F ield         | OpenFOAM: The Open Source CFD Toolbox           |
|  \\    /   O peration     | Version:  2306                                  |
|   \\  /    A nd           | Website:  www.openfoam.com                      |
|    \\/     M anipulation  |                                                 |
\*---------------------------------------------------------------------------*/
FoamFile
{
    version     2.0;
    format      ascii;
    arch        "LSB;label=32;scalar=64";
    class       volVectorField;
    location    "4.7";
    object      U;
}
// * * * * * * * * * * * * * * * * * * * * * * * * * * * * * * * * * * * * * //

dimensions      [0 1 -1 0 0 0 0];

internalField   nonuniform List<vector> 
1900
(
(0.98428 0.0072878 0)
(0.961754 0.0216861 0)
(0.952336 0.0181729 0)
(0.918698 0.025305 0)
(0.903428 0.0154363 0)
(0.863068 0.0257496 0)
(0.852282 0.0115912 0)
(0.811967 0.0267255 0)
(0.809683 0.00454888 0)
(0.770491 0.0259665 0)
(1.00256 0.0115589 0)
(1.00446 0.025861 0)
(1.01944 0.0289628 0)
(1.02197 0.030454 0)
(1.03488 0.0280015 0)
(1.03397 0.028414 0)
(1.04406 0.0257768 0)
(1.04279 0.0250818 0)
(1.0512 0.0206487 0)
(1.05228 0.0161754 0)
(1.00048 0.00388614 0)
(1.00419 0.0111543 0)
(1.01255 0.013997 0)
(1.02113 0.0157848 0)
(1.03154 0.0147083 0)
(1.04054 0.0144141 0)
(1.04998 0.0123674 0)
(1.05839 0.0109183 0)
(1.06687 0.00729212 0)
(1.07471 0.00312666 0)
(1.00007 0.00207683 0)
(1.00313 0.00584206 0)
(1.00888 0.00805319 0)
(1.01649 0.00903207 0)
(1.02527 0.008551 0)
(1.03431 0.00744896 0)
(1.04324 0.00566577 0)
(1.0518 0.00349897 0)
(1.05998 0.000667073 0)
(1.06765 -0.00285613 0)
(1.00003 0.000424318 0)
(1.00261 0.00117142 0)
(1.00738 0.00143329 0)
(1.01402 0.00115119 0)
(1.02191 0.000250791 0)
(1.03035 -0.0011158 0)
(1.03879 -0.00291326 0)
(1.04691 -0.00511936 0)
(1.05459 -0.00778109 0)
(1.06173 -0.0109602 0)
(1.00003 -0.0010607 0)
(1.00255 -0.0030272 0)
(1.0072 -0.00474947 0)
(1.01366 -0.00618836 0)
(1.02133 -0.00748943 0)
(1.02948 -0.00885359 0)
(1.03758 -0.0104668 0)
(1.04532 -0.0124397 0)
(1.05259 -0.0148127 0)
(1.05936 -0.0175566 0)
(1.00003 -0.0027104 0)
(1.00303 -0.00743162 0)
(1.00836 -0.0110575 0)
(1.01546 -0.0134937 0)
(1.02347 -0.0151177 0)
(1.03163 -0.0164789 0)
(1.0395 -0.0179824 0)
(1.04689 -0.0198062 0)
(1.05381 -0.0219432 0)
(1.06029 -0.024304 0)
(1.00004 -0.00476881 0)
(1.00441 -0.0122317 0)
(1.01137 -0.0169143 0)
(1.0198 -0.0193437 0)
(1.02839 -0.0206685 0)
(1.0364 -0.0218373 0)
(1.0436 -0.0232986 0)
(1.05007 -0.0250794 0)
(1.05594 -0.0270385 0)
(1.06125 -0.0290425 0)
(1.00006 -0.0121183 0)
(1.00722 -0.0259503 0)
(1.01558 -0.0314265 0)
(1.02287 -0.0325736 0)
(1.02794 -0.0326554 0)
(1.03073 -0.0330281 0)
(1.03174 -0.0338039 0)
(1.03144 -0.0347198 0)
(1.03003 -0.0355601 0)
(1.02753 -0.0362655 0)
(0.980777 -0.00916337 0)
(0.964586 -0.018821 0)
(0.94546 -0.0220452 0)
(0.920794 -0.0221838 0)
(0.892007 -0.0217368 0)
(0.861698 -0.0215745 0)
(0.831464 -0.0216051 0)
(0.801784 -0.0215931 0)
(0.772589 -0.0214146 0)
(0.743637 -0.021085 0)
(0.000207316 -0.00010956 0)
(0.000346555 -2.05266e-05 0)
(8.6404e-05 2.70998e-05 0)
(-0.000395761 5.6406e-05 0)
(-0.00104077 7.4368e-05 0)
(-0.00180646 9.16645e-05 0)
(-0.00267925 0.000111834 0)
(-0.00365408 0.000133848 0)
(-0.00472571 0.000156512 0)
(-0.00588789 0.000179143 0)
(-0.00713368 0.000201335 0)
(-0.00845572 0.000222798 0)
(-0.00984655 0.000243294 0)
(-0.0112988 0.000262621 0)
(-0.0128055 0.000280627 0)
(-0.0143598 0.000297205 0)
(-0.0159555 0.000312297 0)
(-0.0175868 0.000325871 0)
(-0.0192485 0.000337899 0)
(-0.020936 0.00034839 0)
(-0.0226457 0.000357396 0)
(-0.0243751 0.000365007 0)
(-0.0261227 0.000371342 0)
(-0.0278886 0.000376527 0)
(-0.0296741 0.000380702 0)
(-0.031482 0.000384039 0)
(-0.0333168 0.000386716 0)
(-0.0351845 0.000388843 0)
(-0.0370927 0.000390398 0)
(-0.0390504 0.000391167 0)
(-0.0410674 0.000390654 0)
(-0.0431548 0.000388039 0)
(-0.0453244 0.000382393 0)
(-0.0475897 0.000373312 0)
(-0.0499685 0.000361753 0)
(-0.0524844 0.000350743 0)
(-0.0551705 0.000346346 0)
(-0.058072 0.00035898 0)
(-0.0612507 0.000404452 0)
(-0.0647875 0.000504827 0)
(-0.0687848 0.000688019 0)
(-0.0733634 0.000984695 0)
(-0.0786551 0.00142158 0)
(-0.0847854 0.00201259 0)
(-0.0918502 0.00274937 0)
(-0.0998871 0.00359475 0)
(-0.10885 0.00448433 0)
(-0.118593 0.00533513 0)
(-0.12887 0.00605333 0)
(-0.139335 0.00655015 0)
(-0.149579 0.00676312 0)
(-0.159161 0.00666976 0)
(-0.167651 0.0062919 0)
(-0.174655 0.0056972 0)
(-0.179841 0.00496373 0)
(-0.182926 0.00409084 0)
(-0.183712 0.00305497 0)
(-0.182122 0.00185814 0)
(-0.178157 0.000600142 0)
(-0.171806 -0.000671279 0)
(-0.163154 -0.00191505 0)
(-0.152358 -0.00308268 0)
(-0.139572 -0.00416414 0)
(-0.125039 -0.0051175 0)
(-0.108978 -0.00592467 0)
(-0.0916348 -0.00659354 0)
(-0.0733188 -0.0071004 0)
(-0.0542 -0.00743737 0)
(-0.0347687 -0.00761301 0)
(-0.0149403 -0.00768384 0)
(0.00459329 -0.00761216 0)
(0.024239 -0.00745847 0)
(0.0430194 -0.00717409 0)
(0.0617318 -0.00684959 0)
(0.0790938 -0.00641401 0)
(0.0963405 -0.00598581 0)
(0.11183 -0.00546724 0)
(0.127319 -0.00500333 0)
(0.140702 -0.00446684 0)
(0.154373 -0.00403526 0)
(0.165595 -0.00354179 0)
(0.177606 -0.00319603 0)
(0.186752 -0.00278632 0)
(0.197482 -0.00256479 0)
(0.204702 -0.00226978 0)
(0.214765 -0.00220446 0)
(0.220128 -0.00202785 0)
(0.230595 -0.00215133 0)
(0.233778 -0.00207329 0)
(0.246544 -0.0026226 0)
(6.28105e-05 -0.000519337 0)
(-0.000521827 0.000139671 0)
(-0.00201421 0.000710887 0)
(-0.00392365 0.00111513 0)
(-0.00621824 0.0013941 0)
(-0.00882443 0.00161558 0)
(-0.0117047 0.00181578 0)
(-0.0148308 0.00200281 0)
(-0.0181738 0.0021768 0)
(-0.021706 0.00233694 0)
(-0.0254014 0.00248248 0)
(-0.0292351 0.00261323 0)
(-0.0331836 0.00272946 0)
(-0.0372255 0.00283176 0)
(-0.0413416 0.00292095 0)
(-0.0455148 0.00299796 0)
(-0.0497308 0.00306386 0)
(-0.0539776 0.00311974 0)
(-0.058246 0.00316682 0)
(-0.0625295 0.00320672 0)
(-0.0668245 0.00324152 0)
(-0.071131 0.00327354 0)
(-0.075452 0.00330531 0)
(-0.0797937 0.0033395 0)
(-0.0841659 0.00337897 0)
(-0.0885811 0.00342683 0)
(-0.0930557 0.00348639 0)
(-0.0976087 0.00356091 0)
(-0.102262 0.00365347 0)
(-0.107041 0.00376702 0)
(-0.11197 0.00390428 0)
(-0.117079 0.00406805 0)
(-0.122396 0.00426207 0)
(-0.12795 0.00449254 0)
(-0.133771 0.00476917 0)
(-0.139892 0.0051048 0)
(-0.14634 0.00551528 0)
(-0.153143 0.00602007 0)
(-0.160318 0.00664016 0)
(-0.167868 0.00739536 0)
(-0.175779 0.00829907 0)
(-0.18401 0.00935027 0)
(-0.192486 0.0105241 0)
(-0.20109 0.0117665 0)
(-0.209659 0.0129903 0)
(-0.217979 0.0140794 0)
(-0.225798 0.0149047 0)
(-0.232837 0.015347 0)
(-0.238804 0.0152995 0)
(-0.243395 0.0146833 0)
(-0.246312 0.0134702 0)
(-0.247278 0.0116808 0)
(-0.246036 0.00934201 0)
(-0.242407 0.00650162 0)
(-0.236372 0.00325773 0)
(-0.227862 -0.000251706 0)
(-0.216886 -0.00393683 0)
(-0.203427 -0.00768489 0)
(-0.187524 -0.0113993 0)
(-0.169352 -0.0149738 0)
(-0.148972 -0.0183541 0)
(-0.12672 -0.0213881 0)
(-0.102652 -0.0241143 0)
(-0.0771472 -0.0264637 0)
(-0.0504257 -0.0284451 0)
(-0.0226536 -0.030046 0)
(0.0056127 -0.0312211 0)
(0.034788 -0.0320103 0)
(0.0635006 -0.0323902 0)
(0.0929955 -0.0324492 0)
(0.121085 -0.0321256 0)
(0.150128 -0.0315744 0)
(0.176815 -0.0306771 0)
(0.204754 -0.0296594 0)
(0.229388 -0.0283459 0)
(0.255793 -0.0270297 0)
(0.2779 -0.0254698 0)
(0.302595 -0.024025 0)
(0.321868 -0.0223786 0)
(0.344924 -0.0209618 0)
(0.361181 -0.0193687 0)
(0.382922 -0.018116 0)
(0.396069 -0.016689 0)
(0.417053 -0.0157154 0)
(0.427031 -0.0145426 0)
(0.448048 -0.0139508 0)
(0.454795 -0.0130976 0)
(0.476877 -0.012998 0)
(0.480272 -0.0125259 0)
(0.504534 -0.0131179 0)
(-0.000159172 0.000422715 0)
(-0.00194313 0.0022856 0)
(-0.0054201 0.00350449 0)
(-0.00937346 0.00432217 0)
(-0.013768 0.00496097 0)
(-0.018502 0.00552666 0)
(-0.0235336 0.00604459 0)
(-0.0288239 0.00651503 0)
(-0.03432 0.0069338 0)
(-0.0399708 0.0072996 0)
(-0.04573 0.00761264 0)
(-0.0515563 0.00787509 0)
(-0.0574138 0.00809063 0)
(-0.0632726 0.00826365 0)
(-0.0691081 0.00839896 0)
(-0.0749009 0.00850159 0)
(-0.0806362 0.00857674 0)
(-0.0863035 0.00862986 0)
(-0.0918955 0.00866686 0)
(-0.0974085 0.00869369 0)
(-0.102842 0.0087165 0)
(-0.108199 0.00874161 0)
(-0.113486 0.00877539 0)
(-0.118708 0.00882412 0)
(-0.123876 0.00889398 0)
(-0.128997 0.00899123 0)
(-0.134084 0.00912202 0)
(-0.139145 0.00929192 0)
(-0.144188 0.0095054 0)
(-0.149222 0.00976597 0)
(-0.154248 0.0100759 0)
(-0.159266 0.0104361 0)
(-0.16427 0.0108468 0)
(-0.169246 0.0113081 0)
(-0.174174 0.0118215 0)
(-0.179029 0.0123885 0)
(-0.183774 0.0130092 0)
(-0.18836 0.0136826 0)
(-0.192726 0.014404 0)
(-0.196791 0.0151632 0)
(-0.20046 0.0159415 0)
(-0.203619 0.0167099 0)
(-0.206135 0.0174215 0)
(-0.207858 0.0180017 0)
(-0.208624 0.0183508 0)
(-0.208258 0.0183494 0)
(-0.206569 0.0178645 0)
(-0.203404 0.0168048 0)
(-0.198621 0.0150922 0)
(-0.192084 0.0126416 0)
(-0.183682 0.00943393 0)
(-0.173405 0.0055133 0)
(-0.1612 0.000941354 0)
(-0.147083 -0.00418966 0)
(-0.131021 -0.00983639 0)
(-0.11303 -0.0157591 0)
(-0.0930821 -0.021834 0)
(-0.0715164 -0.0278116 0)
(-0.0481637 -0.0336408 0)
(-0.0235122 -0.0391597 0)
(0.00274049 -0.0442975 0)
(0.0300685 -0.0488806 0)
(0.0585599 -0.0529452 0)
(0.0877943 -0.0563406 0)
(0.117464 -0.0591469 0)
(0.147866 -0.0612874 0)
(0.177846 -0.0627916 0)
(0.208673 -0.0636449 0)
(0.238076 -0.0639142 0)
(0.268625 -0.0636374 0)
(0.296654 -0.0628136 0)
(0.326308 -0.0615759 0)
(0.352321 -0.0598729 0)
(0.380653 -0.0579156 0)
(0.404165 -0.0555922 0)
(0.43095 -0.0531856 0)
(0.451639 -0.0505101 0)
(0.476864 -0.047919 0)
(0.494544 -0.0451396 0)
(0.518394 -0.0426009 0)
(0.532992 -0.0399292 0)
(0.55583 -0.0376462 0)
(0.567347 -0.0352569 0)
(0.589688 -0.0334017 0)
(0.59817 -0.031436 0)
(0.62066 -0.0301594 0)
(0.626182 -0.0287421 0)
(0.64957 -0.0282015 0)
(0.652194 -0.0274568 0)
(0.677275 -0.0278055 0)
(-0.000919866 0.00120835 0)
(-0.00479146 0.00508843 0)
(-0.0107035 0.0075664 0)
(-0.016766 0.00923216 0)
(-0.023158 0.0104726 0)
(-0.0298297 0.0114591 0)
(-0.0366964 0.0122644 0)
(-0.0436614 0.0129261 0)
(-0.0506347 0.0134589 0)
(-0.0575451 0.013875 0)
(-0.0643382 0.0141872 0)
(-0.0709705 0.0144075 0)
(-0.0774101 0.0145477 0)
(-0.0836345 0.0146193 0)
(-0.0896289 0.0146336 0)
(-0.0953839 0.0146012 0)
(-0.100895 0.0145321 0)
(-0.10616 0.0144355 0)
(-0.11118 0.0143207 0)
(-0.115958 0.0141964 0)
(-0.120498 0.0140708 0)
(-0.124805 0.0139519 0)
(-0.128881 0.0138468 0)
(-0.132731 0.0137616 0)
(-0.136357 0.0137018 0)
(-0.139757 0.0136719 0)
(-0.142929 0.0136758 0)
(-0.145868 0.0137164 0)
(-0.148564 0.0137937 0)
(-0.151005 0.0139062 0)
(-0.153173 0.0140503 0)
(-0.155045 0.0142202 0)
(-0.15659 0.0144081 0)
(-0.157771 0.0146055 0)
(-0.158545 0.014806 0)
(-0.158863 0.0150066 0)
(-0.158665 0.0151968 0)
(-0.157887 0.0153665 0)
(-0.156449 0.0155011 0)
(-0.154263 0.0155792 0)
(-0.151224 0.015571 0)
(-0.147222 0.0154406 0)
(-0.142152 0.0151437 0)
(-0.135901 0.0145991 0)
(-0.128365 0.0137066 0)
(-0.119462 0.0123732 0)
(-0.109052 0.0104055 0)
(-0.0970907 0.00777306 0)
(-0.0836329 0.00437717 0)
(-0.0686246 0.000239636 0)
(-0.0520357 -0.0046819 0)
(-0.0340213 -0.0103409 0)
(-0.0143867 -0.0166788 0)
(0.00658468 -0.0235023 0)
(0.02908 -0.0306509 0)
(0.0526412 -0.0379189 0)
(0.0777637 -0.0452702 0)
(0.103678 -0.0524709 0)
(0.131018 -0.059472 0)
(0.158913 -0.0660411 0)
(0.187969 -0.0721341 0)
(0.217328 -0.0774917 0)
(0.247425 -0.0822478 0)
(0.277708 -0.0861333 0)
(0.308066 -0.0892886 0)
(0.338587 -0.0915085 0)
(0.368399 -0.0929579 0)
(0.398508 -0.0935171 0)
(0.427014 -0.09335 0)
(0.456135 -0.0924187 0)
(0.482695 -0.090856 0)
(0.510392 -0.088701 0)
(0.534517 -0.0860455 0)
(0.560527 -0.0830023 0)
(0.58189 -0.079603 0)
(0.606134 -0.0760322 0)
(0.624562 -0.0722415 0)
(0.647133 -0.0684891 0)
(0.662582 -0.0646278 0)
(0.683726 -0.0609999 0)
(0.696247 -0.0573404 0)
(0.716334 -0.0540943 0)
(0.726037 -0.0508578 0)
(0.745538 -0.0482055 0)
(0.752567 -0.0455687 0)
(0.772029 -0.0436892 0)
(0.776534 -0.0418011 0)
(0.796566 -0.040859 0)
(0.798683 -0.0398548 0)
(0.819935 -0.0400039 0)
(-0.00127679 0.00691143 0)
(-0.00686587 0.013755 0)
(-0.0154931 0.0163859 0)
(-0.0239944 0.0175535 0)
(-0.0325118 0.0183976 0)
(-0.0407989 0.0191906 0)
(-0.0487264 0.0198831 0)
(-0.0562529 0.0203984 0)
(-0.0633477 0.0207176 0)
(-0.0699778 0.020867 0)
(-0.0761245 0.0208752 0)
(-0.0817812 0.0207672 0)
(-0.0869507 0.0205652 0)
(-0.0916423 0.0202887 0)
(-0.0958695 0.0199546 0)
(-0.0996484 0.0195774 0)
(-0.102996 0.0191696 0)
(-0.105929 0.0187411 0)
(-0.108462 0.0183006 0)
(-0.110608 0.0178568 0)
(-0.11238 0.0174175 0)
(-0.113787 0.0169891 0)
(-0.114835 0.0165771 0)
(-0.115529 0.0161851 0)
(-0.115866 0.0158152 0)
(-0.115842 0.015468 0)
(-0.115448 0.0151442 0)
(-0.114674 0.0148435 0)
(-0.113501 0.0145609 0)
(-0.11191 0.0142899 0)
(-0.109875 0.0140214 0)
(-0.107367 0.0137441 0)
(-0.104351 0.0134445 0)
(-0.100782 0.0131078 0)
(-0.0966061 0.012723 0)
(-0.09179 0.0122955 0)
(-0.0862598 0.0117988 0)
(-0.0799617 0.0112139 0)
(-0.0728213 0.0105194 0)
(-0.0647612 0.00969006 0)
(-0.0556845 0.00868894 0)
(-0.0454843 0.00746131 0)
(-0.0341277 0.00594101 0)
(-0.0215273 0.00407217 0)
(-0.00755682 0.00178554 0)
(0.00770775 -0.00101486 0)
(0.0243403 -0.00442282 0)
(0.0423423 -0.00848759 0)
(0.0617248 -0.0133176 0)
(0.0823784 -0.0188958 0)
(0.104498 -0.0252158 0)
(0.127605 -0.0321618 0)
(0.152114 -0.0396615 0)
(0.177351 -0.0475858 0)
(0.203984 -0.0558402 0)
(0.231015 -0.0641596 0)
(0.259369 -0.0725167 0)
(0.287846 -0.0805947 0)
(0.317488 -0.0883997 0)
(0.346959 -0.0955896 0)
(0.37732 -0.102217 0)
(0.407217 -0.107947 0)
(0.437608 -0.11291 0)
(0.467302 -0.116808 0)
(0.496993 -0.119823 0)
(0.525844 -0.12171 0)
(0.554125 -0.1227 0)
(0.581587 -0.122613 0)
(0.607865 -0.121705 0)
(0.633538 -0.119858 0)
(0.65738 -0.117335 0)
(0.68104 -0.114072 0)
(0.70218 -0.110317 0)
(0.723771 -0.106059 0)
(0.742093 -0.101505 0)
(0.76171 -0.0966934 0)
(0.777223 -0.0917665 0)
(0.795086 -0.0868137 0)
(0.807892 -0.0818951 0)
(0.824315 -0.077159 0)
(0.834567 -0.0725662 0)
(0.84993 -0.0683406 0)
(0.857807 -0.0643271 0)
(0.872537 -0.0608472 0)
(0.878218 -0.0576116 0)
(0.892775 -0.0550681 0)
(0.896419 -0.0527696 0)
(0.911289 -0.0513256 0)
(0.913016 -0.0501034 0)
(0.928703 -0.0499181 0)
(-0.00367559 0.00679227 0)
(-0.0134982 0.0172275 0)
(-0.0245592 0.0219571 0)
(-0.0336912 0.0246337 0)
(-0.041976 0.0262422 0)
(-0.0496088 0.0271028 0)
(-0.0565478 0.0273929 0)
(-0.0626662 0.0272985 0)
(-0.0678712 0.0269567 0)
(-0.0721648 0.0264396 0)
(-0.0756035 0.0257938 0)
(-0.0782471 0.0250522 0)
(-0.0801558 0.0242431 0)
(-0.0813874 0.0233893 0)
(-0.0819953 0.0225085 0)
(-0.0820283 0.0216144 0)
(-0.0815303 0.020718 0)
(-0.0805385 0.0198257 0)
(-0.0790836 0.0189422 0)
(-0.0771922 0.0180727 0)
(-0.074885 0.0172213 0)
(-0.0721778 0.0163904 0)
(-0.0690813 0.0155805 0)
(-0.0656011 0.0147909 0)
(-0.0617354 0.014018 0)
(-0.0574758 0.0132577 0)
(-0.0528096 0.0125075 0)
(-0.047727 0.0117682 0)
(-0.0422021 0.011029 0)
(-0.0362105 0.010279 0)
(-0.029723 0.00950606 0)
(-0.0227072 0.00869639 0)
(-0.0151254 0.00783321 0)
(-0.00693186 0.00689672 0)
(0.00197478 0.00585458 0)
(0.0115377 0.00467709 0)
(0.0218721 0.00336105 0)
(0.0330242 0.00189676 0)
(0.0450619 0.000254852 0)
(0.0580453 -0.00159866 0)
(0.0720458 -0.00370003 0)
(0.0871259 -0.00608831 0)
(0.103338 -0.00882396 0)
(0.120711 -0.0119781 0)
(0.139393 -0.0155908 0)
(0.159279 -0.0197898 0)
(0.180528 -0.0245813 0)
(0.202864 -0.0300111 0)
(0.226585 -0.0360995 0)
(0.251192 -0.0428365 0)
(0.277156 -0.0502431 0)
(0.303715 -0.0581909 0)
(0.331529 -0.0666471 0)
(0.359595 -0.0753975 0)
(0.388793 -0.0843925 0)
(0.417871 -0.0933433 0)
(0.447899 -0.102211 0)
(0.477412 -0.11067 0)
(0.507648 -0.118711 0)
(0.536959 -0.125992 0)
(0.566709 -0.132557 0)
(0.595133 -0.138073 0)
(0.623677 -0.142659 0)
(0.650564 -0.146018 0)
(0.677254 -0.14835 0)
(0.702078 -0.149403 0)
(0.726419 -0.149453 0)
(0.748853 -0.148295 0)
(0.770547 -0.146257 0)
(0.790468 -0.143176 0)
(0.809404 -0.139418 0)
(0.826871 -0.134846 0)
(0.843087 -0.129839 0)
(0.858296 -0.124279 0)
(0.871939 -0.118529 0)
(0.885177 -0.112484 0)
(0.896455 -0.106473 0)
(0.908061 -0.100397 0)
(0.917209 -0.0945385 0)
(0.927545 -0.0888131 0)
(0.93479 -0.0834438 0)
(0.944219 -0.0783712 0)
(0.949767 -0.0737508 0)
(0.958644 -0.0695644 0)
(0.962667 -0.0658901 0)
(0.971339 -0.0627706 0)
(0.973961 -0.0601946 0)
(0.982766 -0.0582903 0)
(0.984053 -0.05694 0)
(0.993318 -0.0563888 0)
(-0.00179884 0.0287852 0)
(-0.00959283 0.0405245 0)
(-0.0241136 0.0404659 0)
(-0.0355362 0.0380516 0)
(-0.044589 0.0362084 0)
(-0.0510253 0.0347237 0)
(-0.0551468 0.0332486 0)
(-0.0573518 0.0317087 0)
(-0.0580022 0.0301165 0)
(-0.0573761 0.0284965 0)
(-0.055663 0.0268717 0)
(-0.0530102 0.0252555 0)
(-0.0495437 0.0236655 0)
(-0.0453697 0.0221134 0)
(-0.0405778 0.0206052 0)
(-0.0352433 0.0191441 0)
(-0.0294324 0.0177314 0)
(-0.0231949 0.0163615 0)
(-0.0165671 0.0150282 0)
(-0.00958558 0.0137344 0)
(-0.00227449 0.0124797 0)
(0.00534985 0.0112615 0)
(0.0132775 0.0100761 0)
(0.0215037 0.00891889 0)
(0.0300381 0.00777849 0)
(0.0388989 0.00664224 0)
(0.0481162 0.00549256 0)
(0.0576765 0.00431272 0)
(0.0676274 0.00309878 0)
(0.0780014 0.00184348 0)
(0.0888356 0.000531638 0)
(0.100167 -0.000856584 0)
(0.112048 -0.00234187 0)
(0.124497 -0.00394847 0)
(0.137611 -0.00569269 0)
(0.151355 -0.00760719 0)
(0.165844 -0.00972171 0)
(0.181127 -0.012058 0)
(0.197266 -0.0146401 0)
(0.214281 -0.0175017 0)
(0.232265 -0.0206773 0)
(0.251203 -0.024208 0)
(0.271226 -0.0281252 0)
(0.292238 -0.0324727 0)
(0.314426 -0.0373045 0)
(0.337571 -0.0426706 0)
(0.361918 -0.0486134 0)
(0.387074 -0.055138 0)
(0.413371 -0.0622673 0)
(0.440229 -0.0699524 0)
(0.468095 -0.0781832 0)
(0.496179 -0.0868287 0)
(0.525067 -0.0958312 0)
(0.553742 -0.104981 0)
(0.582966 -0.114202 0)
(0.611498 -0.12323 0)
(0.640299 -0.131991 0)
(0.667906 -0.140188 0)
(0.695512 -0.147784 0)
(0.721438 -0.154471 0)
(0.747124 -0.160276 0)
(0.770711 -0.164903 0)
(0.793888 -0.16846 0)
(0.814657 -0.170684 0)
(0.834941 -0.171778 0)
(0.852665 -0.171518 0)
(0.869936 -0.170202 0)
(0.884653 -0.16764 0)
(0.899025 -0.164205 0)
(0.910982 -0.159725 0)
(0.922727 -0.154629 0)
(0.932296 -0.148746 0)
(0.941771 -0.142533 0)
(0.949379 -0.135804 0)
(0.956959 -0.129021 0)
(0.963027 -0.121972 0)
(0.969057 -0.115111 0)
(0.973969 -0.108196 0)
(0.978744 -0.101667 0)
(0.982829 -0.0952514 0)
(0.986577 -0.0893736 0)
(0.99011 -0.0837389 0)
(0.993002 -0.0787533 0)
(0.996209 -0.074108 0)
(0.998358 -0.0701922 0)
(1.00143 -0.0666926 0)
(1.00289 -0.0639805 0)
(1.00599 -0.0617497 0)
(1.00677 -0.0603489 0)
(1.01002 -0.0594913 0)
(-0.0196183 0.00825099 0)
(-0.0378869 0.0319045 0)
(-0.0411169 0.0392313 0)
(-0.0432443 0.040021 0)
(-0.0421553 0.0383602 0)
(-0.0387187 0.0356024 0)
(-0.0333911 0.0325358 0)
(-0.0265146 0.0294906 0)
(-0.0183434 0.0265687 0)
(-0.00916511 0.0238353 0)
(0.000837497 0.02127 0)
(0.0115026 0.0188463 0)
(0.0226735 0.0165619 0)
(0.0342387 0.014411 0)
(0.0461106 0.0123846 0)
(0.0582227 0.0104734 0)
(0.0705031 0.00867144 0)
(0.0829202 0.00697587 0)
(0.0954767 0.00537436 0)
(0.108131 0.00384169 0)
(0.120872 0.00235598 0)
(0.133697 0.000902578 0)
(0.146615 -0.000529271 0)
(0.159619 -0.00195083 0)
(0.172745 -0.00337109 0)
(0.186013 -0.00480287 0)
(0.199461 -0.0062624 0)
(0.213102 -0.00777225 0)
(0.226994 -0.00935187 0)
(0.241181 -0.0110185 0)
(0.255706 -0.0127896 0)
(0.270609 -0.0146864 0)
(0.285942 -0.0167309 0)
(0.301744 -0.0189465 0)
(0.318071 -0.0213572 0)
(0.334957 -0.0239769 0)
(0.352459 -0.026828 0)
(0.370608 -0.0299449 0)
(0.389466 -0.0333515 0)
(0.409033 -0.0370805 0)
(0.429383 -0.0411555 0)
(0.450476 -0.0456114 0)
(0.472402 -0.0504731 0)
(0.495056 -0.0557761 0)
(0.518543 -0.0615445 0)
(0.542667 -0.067804 0)
(0.567551 -0.0745648 0)
(0.592874 -0.0818184 0)
(0.61879 -0.0895449 0)
(0.644837 -0.0976881 0)
(0.671229 -0.106191 0)
(0.697347 -0.114938 0)
(0.723502 -0.123835 0)
(0.748887 -0.132711 0)
(0.773973 -0.141449 0)
(0.797762 -0.149832 0)
(0.82095 -0.157748 0)
(0.842337 -0.164955 0)
(0.862909 -0.171382 0)
(0.881254 -0.176786 0)
(0.898706 -0.181167 0)
(0.913631 -0.184302 0)
(0.927745 -0.186287 0)
(0.939178 -0.186926 0)
(0.950033 -0.18642 0)
(0.958195 -0.184597 0)
(0.966142 -0.181762 0)
(0.971496 -0.177756 0)
(0.97706 -0.172973 0)
(0.980186 -0.167247 0)
(0.983945 -0.161037 0)
(0.985433 -0.154147 0)
(0.987925 -0.147075 0)
(0.988291 -0.139576 0)
(0.989958 -0.132173 0)
(0.989609 -0.124562 0)
(0.990777 -0.11728 0)
(0.990002 -0.109965 0)
(0.990887 -0.103168 0)
(0.989875 -0.0964706 0)
(0.990607 -0.0904388 0)
(0.989472 -0.0845996 0)
(0.990118 -0.0795394 0)
(0.988919 -0.0747353 0)
(0.989496 -0.0707975 0)
(0.988253 -0.0671571 0)
(0.988739 -0.0644533 0)
(0.987441 -0.0620746 0)
(0.98777 -0.0606919 0)
(0.98638 -0.059652 0)
(-0.0189963 0.107955 0)
(-0.0182085 0.072762 0)
(-0.0113744 0.0580462 0)
(0.00110627 0.0461503 0)
(0.0174356 0.0363362 0)
(0.0359227 0.0287959 0)
(0.0556214 0.0228762 0)
(0.075793 0.0180193 0)
(0.0962498 0.0138443 0)
(0.11647 0.0101686 0)
(0.136517 0.00692384 0)
(0.156359 0.00406307 0)
(0.175864 0.00151278 0)
(0.195016 -0.000795273 0)
(0.213806 -0.00290614 0)
(0.232239 -0.00485003 0)
(0.250312 -0.00665072 0)
(0.268034 -0.00833025 0)
(0.285435 -0.0099095 0)
(0.302512 -0.0114134 0)
(0.319287 -0.012869 0)
(0.335795 -0.014302 0)
(0.352072 -0.0157338 0)
(0.368147 -0.0171832 0)
(0.384075 -0.0186656 0)
(0.399902 -0.0201966 0)
(0.415669 -0.0217934 0)
(0.431424 -0.0234721 0)
(0.447215 -0.0252537 0)
(0.463099 -0.0271626 0)
(0.47912 -0.0292193 0)
(0.495332 -0.0314466 0)
(0.511774 -0.0338626 0)
(0.528494 -0.0364901 0)
(0.545525 -0.0393457 0)
(0.562908 -0.0424523 0)
(0.580668 -0.0458255 0)
(0.598834 -0.0494915 0)
(0.61742 -0.0534651 0)
(0.636437 -0.0577716 0)
(0.655887 -0.0624219 0)
(0.675748 -0.06744 0)
(0.69601 -0.0728329 0)
(0.716612 -0.0786217 0)
(0.737522 -0.0848067 0)
(0.758617 -0.0913995 0)
(0.77985 -0.098381 0)
(0.80102 -0.105735 0)
(0.822073 -0.11341 0)
(0.842722 -0.12135 0)
(0.862934 -0.129464 0)
(0.882326 -0.137654 0)
(0.900932 -0.145795 0)
(0.918264 -0.153749 0)
(0.9345 -0.161369 0)
(0.949043 -0.168491 0)
(0.962284 -0.174974 0)
(0.973499 -0.18065 0)
(0.983372 -0.18542 0)
(0.991014 -0.189132 0)
(0.99748 -0.191762 0)
(1.00165 -0.193184 0)
(1.00501 -0.193468 0)
(1.00613 -0.192515 0)
(1.00696 -0.1905 0)
(1.00567 -0.187329 0)
(1.0047 -0.183275 0)
(1.00171 -0.178231 0)
(0.999659 -0.172567 0)
(0.995638 -0.166132 0)
(0.993124 -0.159373 0)
(0.988597 -0.152067 0)
(0.986062 -0.144725 0)
(0.981378 -0.137037 0)
(0.979095 -0.129568 0)
(0.974446 -0.121916 0)
(0.972546 -0.114701 0)
(0.968003 -0.107425 0)
(0.966525 -0.100768 0)
(0.962081 -0.0941376 0)
(0.961013 -0.088275 0)
(0.956621 -0.0824957 0)
(0.955927 -0.0776073 0)
(0.951514 -0.0728336 0)
(0.95114 -0.0690512 0)
(0.946612 -0.0653949 0)
(0.946489 -0.0628132 0)
(0.941728 -0.0603552 0)
(0.941755 -0.0590425 0)
(0.93662 -0.0578428 0)
(0.0698923 0.00704491 0)
(0.0898354 0.00651896 0)
(0.153496 0.00605018 0)
(0.198396 0.00286298 0)
(0.237207 -0.00143837 0)
(0.272495 -0.00556041 0)
(0.305078 -0.00911812 0)
(0.334805 -0.0121296 0)
(0.362453 -0.0147065 0)
(0.388275 -0.0169274 0)
(0.412632 -0.0188721 0)
(0.435749 -0.0205947 0)
(0.457704 -0.0221336 0)
(0.478611 -0.0235223 0)
(0.498575 -0.0247861 0)
(0.517682 -0.0259458 0)
(0.536004 -0.0270208 0)
(0.553603 -0.0280333 0)
(0.570539 -0.0290086 0)
(0.586867 -0.0299669 0)
(0.602637 -0.0309282 0)
(0.61791 -0.0319135 0)
(0.632738 -0.0329438 0)
(0.647182 -0.0340382 0)
(0.661298 -0.0352163 0)
(0.675142 -0.0364972 0)
(0.688762 -0.0378977 0)
(0.702211 -0.0394352 0)
(0.715532 -0.0411266 0)
(0.728776 -0.0429909 0)
(0.741983 -0.0450446 0)
(0.755199 -0.047306 0)
(0.768449 -0.0497912 0)
(0.781772 -0.0525186 0)
(0.795178 -0.0555022 0)
(0.808695 -0.0587587 0)
(0.82232 -0.0622989 0)
(0.836065 -0.0661382 0)
(0.849911 -0.0702844 0)
(0.863854 -0.074751 0)
(0.87785 -0.079541 0)
(0.891873 -0.0846642 0)
(0.905854 -0.0901164 0)
(0.919739 -0.0959016 0)
(0.933427 -0.102005 0)
(0.946833 -0.108419 0)
(0.959829 -0.115108 0)
(0.972297 -0.12204 0)
(0.984092 -0.129151 0)
(0.995066 -0.13638 0)
(1.00508 -0.143625 0)
(1.01397 -0.150798 0)
(1.02163 -0.157765 0)
(1.0279 -0.164412 0)
(1.03278 -0.170593 0)
(1.03608 -0.176191 0)
(1.03797 -0.18107 0)
(1.03824 -0.185132 0)
(1.03726 -0.188278 0)
(1.03474 -0.190443 0)
(1.03133 -0.191583 0)
(1.02656 -0.191672 0)
(1.02141 -0.190735 0)
(1.01507 -0.18877 0)
(1.00895 -0.185878 0)
(1.00175 -0.182062 0)
(0.995337 -0.177504 0)
(0.987814 -0.172179 0)
(0.98162 -0.166349 0)
(0.974109 -0.159927 0)
(0.968431 -0.153251 0)
(0.961078 -0.146145 0)
(0.956042 -0.139033 0)
(0.948848 -0.131627 0)
(0.94447 -0.124449 0)
(0.93736 -0.117083 0)
(0.933611 -0.110164 0)
(0.926484 -0.103129 0)
(0.923331 -0.0967427 0)
(0.916084 -0.0902823 0)
(0.913512 -0.0846546 0)
(0.906045 -0.078964 0)
(0.904056 -0.0742757 0)
(0.896262 -0.0695052 0)
(0.894857 -0.0658909 0)
(0.886602 -0.062146 0)
(0.885762 -0.0596959 0)
(0.876868 -0.0570419 0)
(0.876536 -0.0558079 0)
(0.866783 -0.0542783 0)
(0.773649 -0.00919098 0)
(0.775204 -0.0206122 0)
(0.77604 -0.0268276 0)
(0.77772 -0.0305258 0)
(0.78137 -0.0331787 0)
(0.786762 -0.0353856 0)
(0.793618 -0.0372738 0)
(0.801306 -0.0388107 0)
(0.809603 -0.0400134 0)
(0.818299 -0.0409203 0)
(0.827212 -0.0416071 0)
(0.836214 -0.0421469 0)
(0.845205 -0.0425831 0)
(0.854113 -0.042941 0)
(0.862886 -0.0432387 0)
(0.871482 -0.0434922 0)
(0.879873 -0.0437185 0)
(0.888038 -0.043936 0)
(0.895965 -0.0441647 0)
(0.903652 -0.0444249 0)
(0.911105 -0.0447366 0)
(0.918334 -0.0451204 0)
(0.925357 -0.0455971 0)
(0.932192 -0.0461872 0)
(0.938863 -0.0469119 0)
(0.945392 -0.0477907 0)
(0.951801 -0.0488407 0)
(0.958112 -0.0500776 0)
(0.964343 -0.0515157 0)
(0.970515 -0.0531685 0)
(0.976641 -0.0550489 0)
(0.982737 -0.0571692 0)
(0.988806 -0.059541 0)
(0.994853 -0.0621752 0)
(1.00087 -0.0650812 0)
(1.00687 -0.0682672 0)
(1.01281 -0.0717394 0)
(1.0187 -0.0755031 0)
(1.02448 -0.0795615 0)
(1.03015 -0.0839165 0)
(1.03565 -0.0885664 0)
(1.04093 -0.0935081 0)
(1.04593 -0.0987323 0)
(1.0506 -0.104227 0)
(1.05484 -0.109969 0)
(1.0586 -0.115932 0)
(1.06176 -0.122074 0)
(1.06426 -0.128351 0)
(1.066 -0.134698 0)
(1.06692 -0.141049 0)
(1.06691 -0.147314 0)
(1.06595 -0.15341 0)
(1.06398 -0.159226 0)
(1.061 -0.16467 0)
(1.05702 -0.169627 0)
(1.05209 -0.174013 0)
(1.04628 -0.177724 0)
(1.03966 -0.180698 0)
(1.03241 -0.182852 0)
(1.02457 -0.184161 0)
(1.01641 -0.184576 0)
(1.00786 -0.184113 0)
(0.999321 -0.182758 0)
(0.990508 -0.180559 0)
(0.981988 -0.177543 0)
(0.973144 -0.173776 0)
(0.964838 -0.169325 0)
(0.955987 -0.164244 0)
(0.947924 -0.158642 0)
(0.938957 -0.152544 0)
(0.931099 -0.146116 0)
(0.921868 -0.139323 0)
(0.914184 -0.132408 0)
(0.904561 -0.12525 0)
(0.897086 -0.118192 0)
(0.887005 -0.110996 0)
(0.879853 -0.104134 0)
(0.869293 -0.097207 0)
(0.862643 -0.0908445 0)
(0.851595 -0.0844434 0)
(0.845653 -0.078831 0)
(0.834075 -0.0731539 0)
(0.829051 -0.0684876 0)
(0.816832 -0.0636752 0)
(0.812919 -0.0600963 0)
(0.799844 -0.0562306 0)
(0.797203 -0.0538249 0)
(0.782938 -0.0509331 0)
(0.781693 -0.049736 0)
(0.765784 -0.0477983 0)
(1.05716 0.00828644 0)
(1.06025 -0.000100619 0)
(1.06097 -0.00725643 0)
(1.06023 -0.0129118 0)
(1.05936 -0.0175428 0)
(1.05905 -0.0215575 0)
(1.05947 -0.0251311 0)
(1.06044 -0.0282746 0)
(1.06175 -0.030984 0)
(1.06325 -0.0332794 0)
(1.06485 -0.0352045 0)
(1.06651 -0.0368134 0)
(1.06819 -0.0381581 0)
(1.06987 -0.039284 0)
(1.07154 -0.0402303 0)
(1.07317 -0.041032 0)
(1.07474 -0.0417219 0)
(1.07624 -0.0423317 0)
(1.07765 -0.0428928 0)
(1.07898 -0.0434356 0)
(1.0802 -0.0439903 0)
(1.08134 -0.0445854 0)
(1.08238 -0.0452491 0)
(1.08333 -0.0460079 0)
(1.08421 -0.0468872 0)
(1.08501 -0.0479099 0)
(1.08574 -0.0490965 0)
(1.08641 -0.050465 0)
(1.08702 -0.0520312 0)
(1.08757 -0.0538089 0)
(1.08806 -0.0558109 0)
(1.08849 -0.0580475 0)
(1.08886 -0.0605276 0)
(1.08915 -0.0632578 0)
(1.08936 -0.0662437 0)
(1.08947 -0.0694892 0)
(1.08947 -0.0729968 0)
(1.08933 -0.0767673 0)
(1.08904 -0.0807998 0)
(1.08856 -0.085091 0)
(1.08786 -0.089635 0)
(1.08691 -0.0944223 0)
(1.08568 -0.0994397 0)
(1.08413 -0.104668 0)
(1.08222 -0.110083 0)
(1.07991 -0.115651 0)
(1.07716 -0.121335 0)
(1.07395 -0.127085 0)
(1.07023 -0.132847 0)
(1.066 -0.138554 0)
(1.06123 -0.144136 0)
(1.05592 -0.149513 0)
(1.05008 -0.154603 0)
(1.04374 -0.159327 0)
(1.0369 -0.1636 0)
(1.02964 -0.16735 0)
(1.02196 -0.170501 0)
(1.01394 -0.172992 0)
(1.00558 -0.174757 0)
(0.996935 -0.175758 0)
(0.987992 -0.175948 0)
(0.978765 -0.175322 0)
(0.969233 -0.173859 0)
(0.95934 -0.171596 0)
(0.949102 -0.168539 0)
(0.938364 -0.164755 0)
(0.927264 -0.160258 0)
(0.915497 -0.155132 0)
(0.903444 -0.149404 0)
(0.890554 -0.143183 0)
(0.877606 -0.136531 0)
(0.86365 -0.129561 0)
(0.850047 -0.122364 0)
(0.835213 -0.115025 0)
(0.821334 -0.107679 0)
(0.805883 -0.100355 0)
(0.792196 -0.0932537 0)
(0.776392 -0.0863036 0)
(0.763395 -0.0797919 0)
(0.747422 -0.0734884 0)
(0.735586 -0.0678183 0)
(0.719466 -0.06233 0)
(0.709209 -0.0576671 0)
(0.692757 -0.0530758 0)
(0.684469 -0.0495233 0)
(0.667254 -0.0458437 0)
(0.661337 -0.0434649 0)
(0.642644 -0.0406596 0)
(0.639572 -0.0394808 0)
(0.618373 -0.0374601 0)
(1.08188 -0.00325158 0)
(1.08785 -0.0108316 0)
(1.09216 -0.0181688 0)
(1.09483 -0.0242681 0)
(1.09635 -0.0289867 0)
(1.09734 -0.0326493 0)
(1.09818 -0.0356143 0)
(1.09904 -0.0381083 0)
(1.09991 -0.0402249 0)
(1.10073 -0.0419911 0)
(1.10148 -0.0434207 0)
(1.10213 -0.0445395 0)
(1.10268 -0.0453871 0)
(1.10315 -0.0460103 0)
(1.10353 -0.0464557 0)
(1.10385 -0.0467666 0)
(1.10408 -0.0469823 0)
(1.10422 -0.047139 0)
(1.10428 -0.0472705 0)
(1.10424 -0.0474092 0)
(1.1041 -0.0475859 0)
(1.10386 -0.0478297 0)
(1.10352 -0.0481682 0)
(1.10309 -0.048627 0)
(1.10256 -0.0492294 0)
(1.10194 -0.0499965 0)
(1.10123 -0.0509466 0)
(1.10042 -0.0520957 0)
(1.09953 -0.0534573 0)
(1.09854 -0.0550427 0)
(1.09746 -0.0568611 0)
(1.09629 -0.0589195 0)
(1.09501 -0.0612232 0)
(1.09363 -0.0637759 0)
(1.09213 -0.06658 0)
(1.0905 -0.0696365 0)