/*--------------------------------*- C++ -*----------------------------------*\
| =========                 |                                                 |
| \\      /  F ield         | OpenFOAM: The Open Source CFD Toolbox           |
|  \\    /   O peration     | Version:  2306                                  |
|   \\  /    A nd           | Website:  www.openfoam.com                      |
|    \\/     M anipulation  |                                                 |
\*---------------------------------------------------------------------------*/
FoamFile
{
    version     2.0;
    format      ascii;
    arch        "LSB;label=32;scalar=64";
    class       surfaceScalarField;
    location    "4.13";
    object      phi;
}
// * * * * * * * * * * * * * * * * * * * * * * * * * * * * * * * * * * * * * //

dimensions      [0 3 -1 0 0 0 0];

oriented        oriented;

internalField   nonuniform List<scalar> 
3680
(
4.9347e-05
6.53022e-07
4.79742e-05
1.37283e-06
4.66979e-05
1.27626e-06
4.52609e-05
1.43701e-06
4.41231e-05
1.13781e-06
4.27195e-05
1.40361e-06
4.17358e-05
9.83622e-07
4.04349e-05
1.30097e-06
3.9804e-05
6.30885e-07
9.85494e-07
3.88185e-05
5.03392e-05
3.13815e-07
5.08679e-05
8.44173e-07
5.11322e-05
1.01197e-06
5.14653e-05
1.10384e-06
5.15929e-05
1.01024e-06
5.19762e-05
1.02034e-06
5.20615e-05
8.98252e-07
5.25134e-05
8.49123e-07
5.25078e-05
6.3651e-07
4.29862e-07
5.30634e-05
5.01633e-05
1.50526e-07
5.05554e-05
4.52071e-07
5.09759e-05
5.91408e-07
5.14196e-05
6.60198e-07
5.18167e-05
6.13089e-07
5.22678e-05
5.69286e-07
5.26949e-05
4.71126e-07
5.31639e-05
3.80137e-07
5.35809e-05
2.19555e-07
9.03329e-09
5.40017e-05
5.00932e-05
5.7305e-08
5.03764e-05
1.68917e-07
5.0734e-05
2.3375e-07
5.11461e-05
2.48141e-07
5.15497e-05
2.09522e-07
5.19722e-05
1.46786e-07
5.23832e-05
6.00804e-08
5.2812e-05
-4.86781e-08
5.32224e-05
-1.90802e-07
-3.61097e-07
5.35925e-05
5.00738e-05
-1.64857e-08
5.02912e-05
-4.85368e-08
5.0611e-05
-8.604e-08
5.09886e-05
-1.29449e-07
5.13801e-05
-1.81962e-07
5.17741e-05
-2.472e-07
5.21649e-05
-3.30736e-07
5.2551e-05
-4.34802e-07
5.29205e-05
-5.6023e-07
-7.06688e-07
5.32661e-05
5.00732e-05
-8.96457e-08
5.02829e-05
-2.58264e-07
5.05977e-05
-4.00833e-07
5.09651e-05
-4.96869e-07
5.13441e-05
-5.60985e-07
5.17212e-05
-6.24272e-07
5.20908e-05
-7.0038e-07
5.24516e-05
-7.95581e-07
5.28009e-05
-9.09507e-07
-1.0379e-06
5.31321e-05
5.00942e-05
-1.83833e-07
5.03555e-05
-5.19597e-07
5.06981e-05
-7.43424e-07
5.1068e-05
-8.66717e-07
5.14402e-05
-9.33229e-07
5.18038e-05
-9.87879e-07
5.21603e-05
-1.05685e-06
5.25113e-05
-1.14658e-06
5.28517e-05
-1.24992e-06
-1.35871e-06
5.31725e-05
5.01665e-05
-3.50294e-07
5.0518e-05
-8.71095e-07
5.09206e-05
-1.1461e-06
5.12993e-05
-1.24538e-06
5.16479e-05
-1.28188e-06
5.19851e-05
-1.32502e-06
5.23186e-05
-1.39039e-06
5.26396e-05
-1.46756e-06
5.29342e-05
-1.5445e-06
-1.61576e-06
5.31912e-05
5.03676e-05
-7.17892e-07
5.08003e-05
-1.30384e-06
5.10989e-05
-1.44471e-06
5.12763e-05
-1.42273e-06
5.14047e-05
-1.41024e-06
5.15031e-05
-1.42345e-06
5.15541e-05
-1.44144e-06
5.15411e-05
-1.45454e-06
5.14557e-05
-1.4591e-06
-1.45848e-06
5.12984e-05
4.92821e-05
4.79783e-05
4.65336e-05
4.51108e-05
4.37006e-05
4.22771e-05
4.08357e-05
3.93812e-05
3.79221e-05
3.64636e-05
1.43843e-08
-1.43843e-08
1.09447e-08
3.43967e-09
-7.52791e-09
1.84726e-08
-3.56412e-08
2.81133e-08
-7.06518e-08
3.50106e-08
-1.1127e-07
4.06183e-08
-1.57097e-07
4.58273e-08
-2.07873e-07
5.07759e-08
-2.63302e-07
5.54282e-08
-3.23049e-07
5.97475e-08
-3.86759e-07
6.37096e-08
-4.54064e-07
6.73051e-08
-5.24601e-07
7.05368e-08
-5.98016e-07
7.34156e-08
-6.73975e-07
7.59585e-08
-7.52162e-07
7.81875e-08
-8.32291e-07
8.0129e-08
-9.14104e-07
8.18133e-08
-9.9738e-07
8.32756e-08
-1.08194e-06
8.45629e-08
-1.16768e-06
8.57343e-08
-1.25453e-06
8.68553e-08
-1.34253e-06
8.79954e-08
-1.43175e-06
8.92257e-08
-1.52237e-06
9.06203e-08
-1.61463e-06
9.22549e-08
-1.70883e-06
9.42007e-08
-1.80535e-06
9.65171e-08
-1.9046e-06
9.92504e-08
-2.00703e-06
1.02436e-07
-2.11314e-06
1.06112e-07
-2.22349e-06
1.10346e-07
-2.33879e-06
1.153e-07
-2.46009e-06
1.21303e-07
-2.58898e-06
1.28888e-07
-2.72781e-06
1.38833e-07
-2.88e-06
1.52182e-07
-3.05022e-06
1.70223e-07
-3.24459e-06
1.94369e-07
-3.47052e-06
2.25937e-07
-3.73631e-06
2.65787e-07
-4.05014e-06
3.13824e-07
-4.41862e-06
3.68485e-07
-4.84499e-06
4.26368e-07
-5.32733e-06
4.82346e-07
-5.85768e-06
5.30343e-07
-6.42211e-06
5.64436e-07
-7.00145e-06
5.79338e-07
-7.57261e-06
5.71163e-07
-8.11115e-06
5.38531e-07
-8.59335e-06
4.8221e-07
-8.99739e-06
4.04036e-07
-9.30213e-06
3.04742e-07
-9.49572e-06
1.93589e-07
-9.56535e-06
6.96268e-08
-9.50546e-06
-5.9889e-08
-9.31775e-06
-1.87707e-07
-9.00241e-06
-3.15346e-07
-8.56232e-06
-4.40084e-07
-8.00487e-06
-5.57454e-07
-7.34303e-06
-6.61842e-07
-6.58647e-06
-7.5656e-07
-5.74831e-06
-8.38161e-07
-4.84285e-06
-9.05455e-07
-3.88454e-06
-9.58313e-07
-2.88694e-06
-9.97601e-07
-1.8677e-06
-1.01924e-06
-8.39226e-07
-1.02847e-06
1.85458e-07
-1.02468e-06
1.19573e-06
-1.01027e-06
2.17995e-06
-9.8422e-07
3.13056e-06
-9.50615e-07
4.03805e-06
-9.07484e-07
4.89895e-06
-8.60901e-07
5.70633e-06
-8.07384e-07
6.46014e-06
-7.5381e-07
7.15518e-06
-6.95044e-07
7.7954e-06
-6.40219e-07
8.37725e-06
-5.81849e-07
8.90801e-06
-5.30762e-07
9.38496e-06
-4.76947e-07
9.81852e-06
-4.33556e-07
1.02059e-05
-3.87423e-07
1.05608e-05
-3.54864e-07
1.08793e-05
-3.18515e-07
1.11785e-05
-2.99154e-07
1.14513e-05
-2.72823e-07
1.17205e-05
-2.6917e-07
1.19771e-05
-2.56608e-07
-2.78851e-07
-1.08016e-08
-3.58275e-09
-6.42788e-08
5.69168e-08
-1.47519e-07
1.01713e-07
-2.52511e-07
1.33105e-07
-3.74403e-07
1.56903e-07
-5.10875e-07
1.7709e-07
-6.60306e-07
1.95259e-07
-8.2125e-07
2.1172e-07
-9.92334e-07
2.26512e-07
-1.17225e-06
2.39662e-07
-1.35975e-06
2.51208e-07
-1.55366e-06
2.61218e-07
-1.75291e-06
2.69782e-07
-1.95651e-06
2.77019e-07
-2.16361e-06
2.83062e-07
-2.37349e-06
2.88062e-07
-2.58553e-06
2.92177e-07
-2.7993e-06
2.95581e-07
-3.01448e-06
2.98455e-07
-3.23093e-06
3.01008e-07
-3.44866e-06
3.03471e-07
-3.6679e-06
3.0609e-07
-3.88901e-06
3.09109e-07
-4.11256e-06
3.12774e-07
-4.33927e-06
3.17332e-07
-4.57005e-06
3.23032e-07
-4.80596e-06
3.30114e-07
-5.04824e-06
3.38791e-07
-5.29823e-06
3.49246e-07
-5.55744e-06
3.61641e-07
-5.82745e-06
3.76126e-07
-6.10998e-06
3.92876e-07
-6.40684e-06
4.12156e-07
-6.71994e-06
4.34409e-07
-7.05131e-06
4.60253e-07
-7.40288e-06
4.90407e-07
-7.77633e-06
5.25629e-07
-8.17271e-06
5.66608e-07
-8.59208e-06
6.13733e-07
-9.03294e-06
6.66798e-07
-9.49182e-06
7.24667e-07
-9.96282e-06
7.84826e-07
-1.04373e-05
8.42944e-07
-1.09036e-05
8.92724e-07
-1.13478e-05
9.26512e-07
-1.17537e-05
9.36264e-07
-1.21049e-05
9.15637e-07
-1.23852e-05
8.59646e-07
-1.25785e-05
7.64467e-07
-1.26703e-05
6.30343e-07
-1.26487e-05
4.60563e-07
-1.25031e-05
2.58456e-07
-1.22185e-05
2.01652e-08
-1.18093e-05
-2.15686e-07
-1.12705e-05
-4.69173e-07
-1.06008e-05
-7.29569e-07
-9.79941e-06
-9.8909e-07
-8.87498e-06
-1.23977e-06
-7.83508e-06
-1.47999e-06
-6.68895e-06
-1.70358e-06
-5.45148e-06
-1.89931e-06
-4.13442e-06
-2.07362e-06
-2.75062e-06
-2.22196e-06
-1.31626e-06
-2.33982e-06
1.56286e-07
-2.43085e-06
1.64671e-06
-2.48802e-06
3.14839e-06
-2.52092e-06
4.64614e-06
-2.52622e-06
6.12826e-06
-2.50681e-06
7.58312e-06
-2.46513e-06
9.00142e-06
-2.40251e-06
1.03747e-05
-2.32389e-06
1.16964e-05
-2.22915e-06
1.29609e-05
-2.1254e-06
1.41641e-05
-2.01062e-06
1.53038e-05
-1.89357e-06
1.63788e-05
-1.76997e-06
1.7389e-05
-1.65046e-06
1.83353e-05
-1.5281e-06
1.92199e-05
-1.41535e-06
2.00451e-05
-1.30221e-06
2.08151e-05
-1.20355e-06
2.15335e-05
-1.1058e-06
2.22057e-05
-1.02704e-06
2.28364e-05
-9.49211e-07
2.34322e-05
-8.94982e-07
2.39999e-05
-8.4048e-07
2.45463e-05
-8.15635e-07
2.50772e-05
-7.87461e-07
-7.90698e-07
-4.9932e-08
4.63492e-08
-1.86198e-07
1.93183e-07
-3.68318e-07
2.83834e-07
-5.77452e-07
3.42238e-07
-8.04776e-07
3.84228e-07
-1.04786e-06
4.20173e-07
-1.30517e-06
4.52566e-07
-1.5742e-06
4.80756e-07
-1.85241e-06
5.04717e-07
-2.1374e-06
5.24659e-07
-2.42706e-06
5.40861e-07
-2.71949e-06
5.53651e-07
-3.01312e-06
5.63407e-07
-3.30662e-06
5.70527e-07
-3.59897e-06
5.75412e-07
-3.88937e-06
5.78456e-07
-4.17723e-06
5.80042e-07
-4.46221e-06
5.80556e-07
-4.74409e-06
5.80332e-07
-5.02283e-06
5.79757e-07
-5.2986e-06
5.79239e-07
-5.57168e-06
5.79163e-07
-5.84245e-06
5.79879e-07
-6.11137e-06
5.81701e-07
-6.37895e-06
5.84912e-07
-6.6457e-06
5.89775e-07
-6.91209e-06
5.9651e-07
-7.17855e-06
6.05253e-07
-7.44536e-06
6.16055e-07
-7.71262e-06
6.28896e-07
-7.98019e-06
6.43693e-07
-8.24763e-06
6.60321e-07
-8.5141e-06
6.78626e-07
-8.77843e-06
6.98743e-07
-9.03904e-06
7.20861e-07
-9.29374e-06
7.45106e-07
-9.53958e-06
7.71469e-07
-9.77273e-06
7.9976e-07
-9.98832e-06
8.29319e-07
-1.01803e-05
8.58746e-07
-1.03415e-05
8.85937e-07
-1.04638e-05
9.07124e-07
-1.05379e-05
9.16991e-07
-1.05542e-05
9.09023e-07
-1.05034e-05
8.75706e-07
-1.03758e-05
8.08709e-07
-1.01633e-05
7.03089e-07
-9.86028e-06
5.56653e-07
-9.46228e-06
3.66465e-07
-8.96347e-06
1.31534e-07
-8.36364e-06
-1.39263e-07
-7.66534e-06
-4.39848e-07
-6.87491e-06
-7.70264e-07
-5.97455e-06
-1.11604e-06
-4.97371e-06
-1.47001e-06
-3.8804e-06
-1.82288e-06
-2.6988e-06
-2.17069e-06
-1.43629e-06
-2.50228e-06
-9.68815e-08
-2.8194e-06
1.29833e-06
-3.09879e-06
2.75257e-06
-3.35355e-06
4.24899e-06
-3.57005e-06
5.77893e-06
-3.7519e-06
7.32929e-06
-3.89018e-06
8.89015e-06
-3.99171e-06
1.0451e-05
-4.04887e-06
1.19999e-05
-4.06983e-06
1.35254e-05
-4.0517e-06
1.50198e-05
-4.00125e-06
1.64729e-05
-3.91825e-06
1.78798e-05
-3.80934e-06
1.92326e-05
-3.67668e-06
2.05292e-05
-3.52575e-06
2.17642e-05
-3.36046e-06
2.29382e-05
-3.18458e-06
2.4048e-05
-3.00341e-06
2.50965e-05
-2.81845e-06
2.60823e-05
-2.63626e-06
2.70099e-05
-2.45575e-06
2.78795e-05
-2.28489e-06
2.86969e-05
-2.11959e-06
2.94631e-05
-1.96979e-06
3.01852e-05
-1.82786e-06
3.08648e-05
-1.70667e-06
3.15098e-05
-1.59419e-06
3.21224e-05
-1.50764e-06
3.27114e-05
-1.42942e-06
3.32782e-05
-1.38247e-06
3.38317e-05
-1.34093e-06
-1.34056e-06
-1.38194e-07
1.84543e-07
-3.92121e-07
4.4711e-07
-6.85447e-07
5.77159e-07
-9.96109e-07
6.529e-07
-1.32198e-06
7.10101e-07
-1.66037e-06
7.58556e-07
-2.00627e-06
7.98472e-07
-2.35501e-06
8.29498e-07
-2.70261e-06
8.52314e-07
-3.04606e-06
8.68108e-07
-3.38293e-06
8.7773e-07
-3.71133e-06
8.82051e-07
-4.02991e-06
8.81995e-07
-4.33775e-06
8.78368e-07
-4.63424e-06
8.71892e-07
-4.91899e-06
8.63214e-07
-5.19186e-06
8.52904e-07
-5.45276e-06
8.41458e-07
-5.70177e-06
8.29343e-07
-5.93902e-06
8.17013e-07
-6.16468e-06
8.04898e-07
-6.3789e-06
7.93376e-07
-6.58177e-06
7.82758e-07
-6.77334e-06
7.73269e-07
-6.9535e-06
7.65071e-07
-7.12201e-06
7.5828e-07
-7.27847e-06
7.52978e-07
-7.42233e-06
7.49107e-07
-7.55274e-06
7.46467e-07
-7.66861e-06
7.44767e-07
-7.76854e-06
7.43623e-07
-7.85079e-06
7.42575e-07
-7.9133e-06
7.41131e-07
-7.95344e-06
7.38888e-07
-7.96822e-06
7.35633e-07
-7.95425e-06
7.31139e-07
-7.90755e-06
7.2477e-07
-7.8235e-06
7.15715e-07
-7.69689e-06
7.02703e-07
-7.52192e-06
6.83778e-07
-7.29196e-06
6.5598e-07
-7.00011e-06
6.15271e-07
-6.64134e-06
5.58219e-07
-6.21052e-06
4.78199e-07
-5.70426e-06
3.69448e-07
-5.11867e-06
2.23118e-07
-4.45002e-06
3.44453e-08
-3.70357e-06
-1.89797e-07
-2.87841e-06
-4.58701e-07
-1.97753e-06
-7.69345e-07
-9.99679e-07
-1.11711e-06
5.44656e-08
-1.49399e-06
1.18022e-06
-1.89602e-06
2.37253e-06
-2.30835e-06
3.63014e-06
-2.72762e-06
4.94877e-06
-3.14152e-06
6.32443e-06
-3.54634e-06
7.75029e-06
-3.92814e-06
9.21808e-06
-4.2872e-06
1.07248e-05
-4.60548e-06
1.22589e-05
-4.88768e-06
1.38108e-05
-5.12193e-06
1.53716e-05
-5.31272e-06
1.69301e-05
-5.44871e-06
1.84771e-05
-5.53863e-06
2.00021e-05
-5.57387e-06
2.14971e-05
-5.56484e-06
2.29519e-05
-5.50657e-06
2.43614e-05
-5.41074e-06
2.57174e-05
-5.27426e-06
2.70174e-05
-5.10931e-06
2.82554e-05
-4.91473e-06
2.94318e-05
-4.70208e-06
3.05427e-05
-4.47137e-06
3.15907e-05
-4.23264e-06
3.25741e-05
-3.98672e-06
3.3497e-05
-3.74143e-06
3.43592e-05
-3.49839e-06
3.51662e-05
-3.26276e-06
3.59185e-05
-3.03726e-06
3.66229e-05
-2.82397e-06
3.72804e-05
-2.62727e-06
3.78983e-05
-2.44575e-06
3.84779e-05
-2.2863e-06
3.90272e-05
-2.14344e-06
3.95472e-05
-2.02771e-06
4.00465e-05
-1.92871e-06
4.05261e-05
-1.86206e-06
4.09971e-05
-1.81194e-06
-1.80308e-06
-1.95328e-07
3.79872e-07
-5.6602e-07
8.17801e-07
-9.84253e-07
9.95392e-07
-1.41198e-06
1.08063e-06
-1.83305e-06
1.13117e-06
-2.23877e-06
1.16428e-06
-2.6254e-06
1.1851e-06
-2.99181e-06
1.19591e-06
-3.33622e-06
1.19672e-06
-3.65712e-06
1.18902e-06
-3.95384e-06
1.17444e-06
-4.22622e-06
1.15444e-06
-4.47451e-06
1.13028e-06
-4.69921e-06
1.10307e-06
-4.90099e-06
1.07367e-06
-5.0806e-06
1.04282e-06
-5.2388e-06
1.01111e-06
-5.37629e-06
9.78947e-07
-5.49367e-06
9.46722e-07
-5.59147e-06
9.14814e-07
-5.67011e-06
8.83538e-07
-5.72987e-06
8.53131e-07
-5.77085e-06
8.23745e-07
-5.79298e-06
7.95403e-07
-5.79596e-06
7.68043e-07
-5.77922e-06
7.41542e-07
-5.74206e-06
7.15819e-07
-5.68358e-06
6.90627e-07
-5.60261e-06
6.65496e-07
-5.49771e-06
6.39871e-07
-5.3672e-06
6.13109e-07
-5.20908e-06
5.84461e-07
-5.02106e-06
5.53111e-07
-4.80036e-06
5.18183e-07
-4.54381e-06
4.7908e-07
-4.24822e-06
4.35549e-07
-3.90977e-06
3.86325e-07
-3.52424e-06
3.30185e-07
-3.08702e-06
2.65486e-07
-2.59322e-06
1.89975e-07
-2.03769e-06
1.00451e-07
-1.41404e-06
-8.3783e-09
-7.24217e-07
-1.31606e-07
3.60172e-08
-2.82036e-07
8.70939e-07
-4.65473e-07
1.77719e-06
-6.83133e-07
2.75087e-06
-9.39238e-07
3.79456e-06
-1.23349e-06
4.90411e-06
-1.56825e-06
6.07482e-06
-1.94005e-06
7.30308e-06
-2.34538e-06
8.58487e-06
-2.77578e-06
9.91586e-06
-3.22701e-06
1.12936e-05
-3.6861e-06
1.27144e-05
-4.14843e-06
1.4173e-05
-4.6001e-06
1.5664e-05
-5.03734e-06
1.71805e-05
-5.4446e-06
1.87138e-05
-5.82052e-06
2.02575e-05
-6.14916e-06
2.18018e-05
-6.43198e-06
2.33365e-05
-6.65663e-06
2.48524e-05
-6.82862e-06
2.63403e-05
-6.93665e-06
2.77919e-05
-6.99021e-06
2.9199e-05
-6.98102e-06
3.0556e-05
-6.92176e-06
3.18561e-05
-6.80666e-06
3.30962e-05
-6.65087e-06
3.4272e-05
-6.45011e-06
3.53834e-05
-6.22069e-06
3.64279e-05
-5.95923e-06
3.74079e-05
-5.68203e-06
3.83223e-05
-5.38582e-06
3.91756e-05
-5.0859e-06
3.99676e-05
-4.77871e-06
4.07041e-05
-4.47794e-06
4.13854e-05
-4.1797e-06
4.20184e-05
-3.89576e-06
4.26033e-05
-3.62214e-06
4.31478e-05
-3.36847e-06
4.36517e-05
-3.13117e-06
4.41235e-05
-2.91755e-06
4.45622e-05
-2.72503e-06
4.49772e-05
-2.55841e-06
4.53664e-05
-2.41691e-06
4.57402e-05
-2.30253e-06
4.60955e-05
-2.21737e-06
4.64438e-05
-2.16025e-06
-2.14247e-06
-4.22343e-07
8.02215e-07
-9.63067e-07
1.35853e-06
-1.45678e-06
1.4891e-06
-1.89173e-06
1.51558e-06
-2.28941e-06
1.52885e-06
-2.65485e-06
1.52972e-06
-2.98333e-06
1.51357e-06
-3.26874e-06
1.48131e-06
-3.50755e-06
1.43554e-06
-3.70187e-06
1.38333e-06
-3.85465e-06
1.32723e-06
-3.96887e-06
1.26865e-06
-4.04737e-06
1.20879e-06
-4.09289e-06
1.14858e-06
-4.10788e-06
1.08867e-06
-4.09457e-06
1.02951e-06
-4.0549e-06
9.71441e-07
-3.99049e-06
9.14538e-07
-3.90264e-06
8.5887e-07
-3.7924e-06
8.04573e-07
-3.66056e-06
7.51703e-07
-3.50764e-06
7.00214e-07
-3.33389e-06
6.49993e-07
-3.13923e-06
6.0074e-07
-2.92329e-06
5.52101e-07
-2.68534e-06
5.03597e-07
-2.42458e-06
4.55055e-07
-2.13995e-06
4.06002e-07
-1.83007e-06
3.55612e-07
-1.49334e-06
3.03143e-07
-1.12799e-06
2.47758e-07
-7.31959e-07
1.88429e-07
-3.02822e-07
1.23974e-07
1.62577e-07
5.27846e-08
6.67203e-07
-2.55469e-08
1.21237e-06
-1.0962e-07
1.80255e-06
-2.03857e-07
2.44164e-06
-3.08895e-07
3.13345e-06
-4.26331e-07
3.88184e-06
-5.58408e-07
4.68989e-06
-7.07602e-07
5.55805e-06
-8.76543e-07
6.49435e-06
-1.0679e-06
7.49803e-06
-1.28571e-06
8.56762e-06
-1.53507e-06
9.70199e-06
-1.8175e-06
1.08984e-05
-2.13561e-06
1.21537e-05
-2.48884e-06
1.34629e-05
-2.87744e-06
1.48205e-05
-3.29762e-06
1.62212e-05
-3.74614e-06
1.76596e-05
-4.21412e-06
1.91291e-05
-4.69649e-06
2.0624e-05
-5.18108e-06
2.21375e-05
-5.66192e-06
2.36623e-05
-6.12483e-06
2.51895e-05
-6.56456e-06
2.67108e-05
-6.96591e-06
2.82161e-05
-7.32586e-06
2.9697e-05
-7.62999e-06
3.11436e-05
-7.87861e-06
3.25472e-05
-8.06027e-06
3.38996e-05
-8.18102e-06
3.51947e-05
-8.23169e-06
3.6427e-05
-8.22251e-06
3.75927e-05
-8.14674e-06
3.86895e-05
-8.01854e-06
3.97157e-05
-7.83293e-06
4.06719e-05
-7.60705e-06
4.15585e-05
-7.33665e-06
4.23783e-05
-7.0405e-06
4.3133e-05
-6.71402e-06
4.38274e-05
-6.3764e-06
4.44635e-05
-6.02195e-06
4.50471e-05
-5.66947e-06
4.55801e-05
-5.31169e-06
4.60688e-05
-4.96666e-06
4.65146e-05
-4.62551e-06
4.69243e-05
-4.30542e-06
4.72982e-05
-3.99608e-06
4.76436e-05
-3.71387e-06
4.79597e-05
-3.4473e-06
4.82543e-05
-3.21211e-06
4.85253e-05
-2.99601e-06
4.87811e-05
-2.81422e-06
4.90183e-05
-2.65411e-06
4.92462e-05
-2.53043e-06
4.94596e-05
-2.43079e-06
4.9669e-05
-2.36962e-06
-2.3406e-06
-2.6692e-07
1.06914e-06
-8.6343e-07
1.95504e-06
-1.48456e-06
2.11023e-06
-2.00464e-06
2.03566e-06
-2.39631e-06
1.92052e-06
-2.66229e-06
1.79571e-06
-2.82034e-06
1.67161e-06
-2.89064e-06
1.55161e-06
-2.89059e-06
1.43549e-06
-2.83119e-06
1.32393e-06
-2.72076e-06
1.21681e-06
-2.5659e-06
1.11378e-06
-2.37228e-06
1.01517e-06
-2.14475e-06
9.21053e-07
-1.8874e-06
8.31314e-07
-1.60359e-06
7.45698e-07
-1.29617e-06
6.64025e-07
-9.67285e-07
5.85649e-07
-6.18609e-07
5.10194e-07
-2.51496e-07
4.3746e-07
1.33127e-07
3.67079e-07
5.34736e-07
2.98605e-07
9.53192e-07
2.31538e-07
1.38887e-06
1.6506e-07
1.84251e-06
9.84637e-08
2.31557e-06
3.05372e-08
2.80858e-06
-3.79609e-08
3.32261e-06
-1.08028e-07
3.85983e-06
-1.81601e-07
4.42221e-06
-2.59239e-07
5.01186e-06
-3.41889e-07
5.63103e-06
-4.3075e-07
6.282e-06
-5.26991e-07
6.96661e-06
-6.31831e-07
7.68723e-06
-7.46159e-07
8.44871e-06
-8.71101e-07
9.25317e-06
-1.00831e-06
1.01037e-05
-1.15946e-06
1.10034e-05
-1.32598e-06
1.19549e-05
-1.50997e-06
1.29607e-05
-1.71333e-06
1.40228e-05
-1.93866e-06
1.51428e-05
-2.18794e-06
1.63208e-05
-2.46371e-06
1.75544e-05
-2.76867e-06
1.88412e-05
-3.10424e-06
2.01767e-05
-3.47111e-06
2.1556e-05
-3.86822e-06
2.29726e-05
-4.29402e-06
2.44192e-05
-4.74423e-06
2.58874e-05
-5.21428e-06
2.73688e-05
-5.69556e-06
2.88537e-05
-6.18133e-06
3.0333e-05
-6.66047e-06
3.17965e-05
-7.12534e-06
3.32347e-05
-7.56303e-06
3.46367e-05
-7.96658e-06
3.59935e-05
-8.32277e-06
3.72954e-05
-8.62774e-06
3.85352e-05
-8.86972e-06
3.9705e-05
-9.04844e-06
4.08e-05
-9.15527e-06
4.18157e-05
-9.19675e-06
4.27514e-05
-9.1674e-06
4.3607e-05
-9.07804e-06
4.43842e-05
-8.92397e-06
4.50858e-05
-8.72012e-06
4.57156e-05
-8.4628e-06
4.62786e-05
-8.17005e-06
4.67798e-05
-7.83778e-06
4.7225e-05
-7.48578e-06
4.76195e-05
-7.10843e-06
4.79693e-05
-6.72627e-06
4.82788e-05
-6.33143e-06
4.8554e-05
-5.94465e-06
4.87978e-05
-5.55549e-06
4.90159e-05
-5.18477e-06
4.92099e-05
-4.81947e-06
4.93851e-05
-4.48061e-06
4.95417e-05
-4.15268e-06
4.96849e-05
-3.85711e-06
4.98137e-05
-3.57607e-06
4.99333e-05
-3.33175e-06
5.00414e-05
-3.10415e-06
5.01438e-05
-2.91656e-06
5.02367e-05
-2.747e-06
5.03264e-05
-2.62017e-06
5.04079e-05
-2.51228e-06
5.04877e-05
-2.44945e-06
-2.40933e-06
-1.49591e-06
2.56504e-06
-1.94759e-06
2.40672e-06
-2.11366e-06
2.2763e-06
-2.1308e-06
2.0528e-06
-2.0186e-06
1.80831e-06
-1.80078e-06
1.57789e-06
-1.49655e-06
1.36739e-06
-1.12028e-06
1.17534e-06
-6.84657e-07
9.99871e-07
-2.01952e-07
8.41224e-07
3.18565e-07
6.96288e-07
8.69233e-07
5.63117e-07
1.44336e-06
4.41035e-07
2.03592e-06
3.28498e-07
2.64308e-06
2.24149e-07
3.26174e-06
1.27042e-07
3.88895e-06
3.68153e-08
4.52447e-06
-4.98665e-08
5.16738e-06
-1.32717e-07
5.81634e-06
-2.11505e-07
6.47116e-06
-2.87741e-07
7.13195e-06
-3.62184e-07
7.79883e-06
-4.35337e-07
8.47339e-06
-5.09501e-07
9.15684e-06
-5.84989e-07
9.85002e-06
-6.62643e-07
1.05553e-05
-7.43206e-07
1.12751e-05
-8.27819e-07
1.20112e-05
-9.17727e-07
1.2766e-05
-1.01404e-06
1.35419e-05
-1.11777e-06
1.43412e-05
-1.23012e-06
1.51664e-05
-1.35218e-06
1.60198e-05
-1.48523e-06
1.6904e-05
-1.63035e-06
1.78217e-05
-1.78877e-06
1.8775e-05
-1.9616e-06
1.9766e-05
-2.15048e-06
2.07966e-05
-2.35662e-06
2.18684e-05
-2.58177e-06
2.29823e-05
-2.82722e-06
2.41385e-05
-3.09487e-06
2.53364e-05
-3.3858e-06
2.65741e-05
-3.70141e-06
2.78478e-05
-4.04237e-06
2.91528e-05
-4.40923e-06
3.04826e-05
-4.80094e-06
3.18301e-05
-5.21569e-06
3.31861e-05
-5.65004e-06
3.45418e-05
-6.09995e-06
3.5886e-05
-6.55849e-06
3.7208e-05
-7.01752e-06
3.84959e-05
-7.46926e-06
3.97395e-05
-7.90407e-06
4.09273e-05
-8.31317e-06
4.20504e-05
-8.68611e-06
4.30992e-05
-9.01536e-06
4.40677e-05
-9.29128e-06
4.49495e-05
-9.50958e-06
4.57424e-05
-9.66262e-06
4.64446e-05
-9.75055e-06
4.70573e-05
-9.76803e-06
4.75817e-05
-9.72114e-06
4.80243e-05
-9.61001e-06
4.83907e-05
-9.44438e-06
4.86886e-05
-9.22187e-06
4.89252e-05
-8.95676e-06
4.9109e-05
-8.64661e-06
4.92477e-05
-8.30878e-06
4.9349e-05
-7.93905e-06
4.942e-05
-7.5568e-06
4.94666e-05
-7.15499e-06
4.94948e-05
-6.75444e-06
4.95081e-05
-6.3448e-06
4.95116e-05
-5.94814e-06
4.95068e-05
-5.55062e-06
4.94976e-05
-5.17565e-06
4.9484e-05
-4.80587e-06
4.94696e-05
-4.46621e-06
4.94527e-05
-4.13576e-06
4.94369e-05
-3.8413e-06
4.94193e-05
-3.55846e-06
4.94037e-05
-3.31615e-06
4.93861e-05
-3.0866e-06
4.93708e-05
-2.90122e-06
4.93527e-05
-2.72888e-06
4.93363e-05
-2.60384e-06
4.93159e-05
-2.49182e-06
4.92969e-05
-2.43045e-06
-2.37887e-06
-8.96309e-07
3.46135e-06
-7.42701e-07
2.25311e-06
-2.52374e-07
1.78598e-06
4.59978e-07
1.34044e-06
1.32923e-06
9.39061e-07
2.28929e-06
6.17836e-07
3.29384e-06
3.62833e-07
4.31558e-06
1.536e-07
5.34025e-06
-2.47958e-08
6.35336e-06
-1.71888e-07
7.3563e-06
-3.0665e-07
8.3475e-06
-4.28088e-07
9.32258e-06
-5.34043e-07
1.02807e-05
-6.2963e-07
1.12218e-05
-7.16932e-07
1.21461e-05
-7.97238e-07
1.30546e-05
-8.71761e-07
1.3947e-05
-9.42211e-07
1.48238e-05
-1.00955e-06
1.56868e-05
-1.07452e-06
1.65373e-05
-1.13816e-06
1.73765e-05
-1.20147e-06
1.82074e-05
-1.26615e-06
1.90314e-05
-1.33352e-06
1.98508e-05
-1.40445e-06
2.06681e-05
-1.47995e-06
2.1486e-05
-1.56106e-06
2.2307e-05
-1.64883e-06
2.31337e-05
-1.74438e-06
2.39685e-05
-1.84888e-06
2.48141e-05
-1.96334e-06
2.56727e-05
-2.08872e-06
2.65464e-05
-2.22595e-06
2.74374e-05
-2.37617e-06
2.83473e-05
-2.54026e-06
2.92778e-05
-2.71926e-06
3.02301e-05
-2.91396e-06
3.12051e-05
-3.1255e-06
3.22032e-05
-3.35464e-06
3.32239e-05
-3.60249e-06
3.42663e-05
-3.86965e-06
3.53289e-05
-4.15746e-06
3.64089e-05
-4.46576e-06
3.75019e-05
-4.79447e-06
3.86027e-05
-5.1431e-06
3.97044e-05
-5.51093e-06
4.0799e-05
-5.89559e-06
4.18778e-05
-6.29445e-06
4.29307e-05
-6.70293e-06
4.39469e-05
-7.11617e-06
4.49155e-05
-7.52713e-06
4.58268e-05
-7.92879e-06
4.66704e-05
-8.31288e-06
4.74381e-05
-8.67171e-06
4.81218e-05
-8.99692e-06
4.87169e-05
-9.28122e-06
4.92194e-05
-9.51781e-06
4.96292e-05
-9.70107e-06
4.99467e-05
-9.82711e-06
5.01767e-05
-9.89263e-06
5.03238e-05
-9.89763e-06
5.0397e-05
-9.84127e-06
5.0404e-05
-9.72813e-06
5.03556e-05
-9.5616e-06
5.02606e-05
-9.3494e-06
5.01303e-05
-9.09161e-06
4.99728e-05
-8.7992e-06
4.97975e-05
-8.47129e-06
4.96105e-05
-8.1218e-06
4.94187e-05
-7.74732e-06
4.92263e-05
-7.36435e-06
4.90372e-05
-6.9659e-06
4.88538e-05
-6.57099e-06
4.86774e-05
-6.16841e-06
4.85094e-05
-5.78015e-06
4.83493e-05
-5.3905e-06
4.81983e-05
-5.02473e-06
4.80546e-05
-4.66209e-06
4.79198e-05
-4.33142e-06
4.77905e-05
-4.00654e-06
4.76697e-05
-3.72041e-06
4.75523e-05
-3.4411e-06
4.74424e-05
-3.20626e-06
4.73337e-05
-2.97788e-06
4.72313e-05
-2.79887e-06
4.71273e-05
-2.62482e-06
4.7028e-05
-2.50456e-06
4.69234e-05
-2.38721e-06
4.68212e-05
-2.32826e-06
-2.26824e-06
3.6567e-06
-1.95346e-07
6.38234e-06
-4.72531e-07
8.79368e-06
-6.25359e-07
1.09153e-05
-7.81158e-07
1.27901e-05
-9.35729e-07
1.44822e-05
-1.07432e-06
1.60364e-05
-1.19136e-06
1.74697e-05
-1.27969e-06
1.8808e-05
-1.36307e-06
2.00734e-05
-1.43728e-06
2.12695e-05
-1.50279e-06
2.2403e-05
-1.56156e-06
2.34831e-05
-1.61418e-06
2.45152e-05
-1.66166e-06
2.55032e-05
-1.70501e-06
2.64512e-05
-1.74517e-06
2.73624e-05
-1.78302e-06
2.82398e-05
-1.81954e-06
2.9086e-05
-1.85578e-06
2.99042e-05
-1.8927e-06
3.06973e-05
-1.93129e-06
3.14685e-05
-1.97267e-06
3.22205e-05
-2.01813e-06
3.29558e-05
-2.06884e-06
3.36772e-05
-2.12588e-06
3.43875e-05
-2.19023e-06
3.50893e-05
-2.26284e-06
3.57851e-05
-2.34464e-06
3.64773e-05
-2.43653e-06
3.7168e-05
-2.53958e-06
3.78594e-05
-2.65478e-06
3.85531e-05
-2.78237e-06
3.92504e-05
-2.92325e-06
3.99524e-05
-3.07818e-06
4.06599e-05
-3.24775e-06
4.13732e-05
-3.43255e-06
4.20922e-05
-3.63304e-06
4.28165e-05
-3.84974e-06
4.35448e-05
-4.08295e-06
4.42753e-05
-4.33303e-06
4.50057e-05
-4.6e-06
4.57321e-05
-4.88387e-06
4.64503e-05
-5.18396e-06
4.71553e-05
-5.49943e-06
4.78409e-05
-5.82878e-06
4.85003e-05
-6.17025e-06
4.91256e-05
-6.52097e-06
4.97089e-05
-6.87773e-06
5.02419e-05
-7.23591e-06
5.07164e-05
-7.5907e-06
5.11252e-05
-7.93593e-06
5.14622e-05
-8.26571e-06
5.17223e-05
-8.57303e-06
5.19026e-05
-8.852e-06
5.20018e-05
-9.09608e-06
5.20214e-05
-9.30081e-06
5.19647e-05
-9.4612e-06
5.18382e-05
-9.57451e-06
5.16487e-05
-9.63768e-06
5.14062e-05
-9.65004e-06
5.11192e-05
-9.61068e-06
5.07996e-05
-9.52167e-06
5.04568e-05
-9.38531e-06
5.01003e-05
-9.20507e-06
4.97362e-05
-8.98533e-06
4.93732e-05
-8.72861e-06
4.90145e-05
-8.44049e-06
4.86656e-05
-8.12241e-06
4.83264e-05
-7.78258e-06
4.80002e-05
-7.42111e-06
4.76849e-05
-7.04912e-06
4.73828e-05
-6.6637e-06
4.70906e-05
-6.27879e-06
4.68095e-05
-5.88741e-06
4.65368e-05
-5.50737e-06
4.62731e-05
-5.12686e-06
4.60165e-05
-4.76816e-06
4.57676e-05
-4.4131e-06
4.55252e-05
-4.0891e-06
4.52892e-05
-3.77048e-06
4.50598e-05
-3.49104e-06
4.48352e-05
-3.21644e-06
4.46173e-05
-2.98836e-06
4.44017e-05
-2.76237e-06
4.41926e-05
-2.58975e-06
4.39824e-05
-2.41457e-06
4.37775e-05
-2.29964e-06
4.35661e-05
-2.17587e-06
4.33572e-05
-2.11939e-06
-2.05197e-06
3.86113e-05
1.18433e-08
3.85802e-05
-4.41397e-07
3.872e-05
-7.65176e-07
3.89461e-05
-1.00726e-06
3.92205e-05
-1.21015e-06
3.95374e-05
-1.39124e-06
3.98981e-05
-1.552e-06
4.03039e-05
-1.68554e-06
4.07348e-05
-1.79397e-06
4.11805e-05
-1.883e-06
4.16343e-05
-1.95658e-06
4.20905e-05
-2.01775e-06
4.25451e-05
-2.06881e-06
4.2995e-05
-2.11151e-06
4.34375e-05
-2.14753e-06
4.38708e-05
-2.17846e-06
4.42936e-05
-2.20583e-06
4.47052e-05
-2.23114e-06
4.51053e-05
-2.25587e-06
4.54941e-05
-2.28145e-06
4.5872e-05
-2.30926e-06
4.624e-05
-2.34064e-06
4.65988e-05
-2.37692e-06
4.69493e-05
-2.41936e-06
4.72926e-05
-2.46915e-06
4.76297e-05
-2.52736e-06
4.79618e-05
-2.59493e-06
4.82899e-05
-2.67273e-06
4.86149e-05
-2.76158e-06
4.89376e-05
-2.86222e-06
4.92581e-05
-2.9753e-06
4.9577e-05
-3.1013e-06
4.98944e-05
-3.24067e-06
5.02101e-05
-3.39385e-06
5.05235e-05
-3.56116e-06
5.08338e-05
-3.74288e-06
5.11399e-05
-3.93913e-06
5.14402e-05
-4.15001e-06
5.17327e-05
-4.37544e-06
5.20149e-05
-4.61524e-06
5.22839e-05
-4.86901e-06
5.25361e-05
-5.13612e-06
5.27678e-05
-5.41561e-06
5.29745e-05
-5.70618e-06
5.31518e-05
-6.00603e-06
5.32946e-05
-6.31302e-06
5.3398e-05
-6.62444e-06
5.34575e-05
-6.93716e-06
5.34688e-05
-7.24726e-06
5.34286e-05
-7.55053e-06
5.33349e-05
-7.84217e-06
5.31866e-05
-8.11741e-06
5.29846e-05
-8.37109e-06
5.27312e-05
-8.59854e-06
5.24298e-05
-8.79476e-06
5.20862e-05
-8.9572e-06
5.17071e-05
-9.08211e-06
5.12999e-05
-9.16723e-06
5.08721e-05
-9.20989e-06
5.04312e-05
-9.20914e-06
4.99836e-05
-9.16307e-06
4.95345e-05
-9.0726e-06
4.9087e-05
-8.93783e-06
4.86436e-05
-8.76168e-06
4.8204e-05
-8.54576e-06
4.77692e-05
-8.2938e-06
4.73369e-05
-8.0082e-06
4.69074e-05
-7.69284e-06
4.64767e-05
-7.3519e-06
4.60459e-05
-6.99034e-06
4.56114e-05
-6.61465e-06
4.51761e-05
-6.22841e-06
4.47367e-05
-5.83937e-06
4.42978e-05
-5.44847e-06
4.38563e-05
-5.06584e-06
4.34182e-05
-4.68877e-06
4.29804e-05
-4.33038e-06
4.25497e-05
-3.98238e-06
4.21225e-05
-3.66195e-06
4.17057e-05
-3.3536e-06
4.12951e-05
-3.08045e-06
4.08965e-05
-2.81787e-06
4.05056e-05
-2.59747e-06
4.01261e-05
-2.38291e-06
3.9754e-05
-2.21763e-06
3.93901e-05
-2.0506e-06
3.90318e-05
-1.94143e-06
3.86759e-05
-1.81997e-06
3.83231e-05
-1.76654e-06
-1.69101e-06
5.29857e-05
8.95238e-08
5.28918e-05
-3.47517e-07
5.2863e-05
-7.36307e-07
5.28867e-05
-1.03104e-06
5.29321e-05
-1.25554e-06
5.298e-05
-1.43908e-06
5.30266e-05
-1.59859e-06
5.30796e-05
-1.73857e-06
5.31439e-05
-1.85823e-06
5.32185e-05
-1.95762e-06
5.33005e-05
-2.03857e-06
5.33866e-05
-2.10386e-06
5.34742e-05
-2.15643e-06
5.35615e-05
-2.19882e-06
5.36472e-05
-2.2332e-06
5.37302e-05
-2.26147e-06
5.38098e-05
-2.2854e-06
5.38853e-05
-2.30669e-06
5.39564e-05
-2.32701e-06
5.4023e-05
-2.34797e-06
5.40849e-05
-2.37115e-06
5.41422e-05
-2.398e-06
5.41952e-05
-2.42991e-06
5.4244e-05
-2.46819e-06
5.42889e-05
-2.51404e-06
5.43301e-05
-2.56853e-06
5.43678e-05
-2.6326e-06
5.44021e-05
-2.70706e-06
5.44331e-05
-2.79262e-06
5.44608e-05
-2.88989e-06
5.44848e-05
-2.99936e-06
5.4505e-05
-3.12147e-06
5.45209e-05
-3.25653e-06
5.45318e-05
-3.40479e-06
5.45371e-05
-3.56639e-06
5.45356e-05
-3.74143e-06
5.45264e-05
-3.92989e-06
5.4508e-05
-4.13166e-06
5.44791e-05
-4.34647e-06
5.44378e-05
-4.57399e-06
5.43824e-05
-4.8136e-06
5.43109e-05
-5.06459e-06
5.42211e-05
-5.32586e-06
5.41111e-05
-5.59611e-06
5.39785e-05
-5.8735e-06
5.38214e-05
-6.15587e-06
5.3638e-05
-6.44103e-06
5.3427e-05
-6.72613e-06
5.31875e-05
-7.00777e-06
5.29192e-05
-7.28228e-06
5.26226e-05
-7.5456e-06
5.22988e-05
-7.79356e-06
5.19495e-05
-8.0218e-06
5.1577e-05
-8.22602e-06
5.11842e-05
-8.40198e-06
5.07731e-05
-8.54613e-06
5.03459e-05
-8.65494e-06
4.99041e-05
-8.72539e-06
4.94489e-05
-8.75464e-06
4.898e-05
-8.74025e-06
4.84964e-05
-8.67947e-06
4.79957e-05
-8.57193e-06
4.74757e-05
-8.4178e-06
4.69336e-05
-8.21961e-06
4.63668e-05
-7.97894e-06
4.57728e-05
-7.69977e-06
4.51511e-05
-7.38648e-06
4.45025e-05
-7.0443e-06
4.38279e-05
-6.67727e-06
4.31306e-05
-6.29303e-06
4.24128e-05
-5.8969e-06
4.16807e-05
-5.49629e-06
4.09372e-05
-5.09592e-06
4.01908e-05
-4.70206e-06
3.9444e-05
-4.31899e-06
3.87061e-05
-3.95089e-06
3.79774e-05
-3.60164e-06
3.72676e-05
-3.27261e-06
3.65741e-05
-2.96842e-06
3.5907e-05
-2.68655e-06
3.52601e-05
-2.43353e-06
3.46437e-05
-2.20152e-06
3.40479e-05
-2.00161e-06
3.3483e-05
-1.81803e-06
3.29351e-05
-1.66972e-06
3.24149e-05
-1.53043e-06
3.1906e-05
-1.43253e-06
3.14189e-05
-1.33288e-06
3.09367e-05
-1.28436e-06
-1.21456e-06
5.43217e-05
-2.30534e-07
5.45039e-05
-5.29662e-07
5.46082e-05
-8.4057e-07
5.46956e-05
-1.11847e-06