/*--------------------------------*- C++ -*----------------------------------*\
| =========                 |                                                 |
| \\      /  F ield         | OpenFOAM: The Open Source CFD Toolbox           |
|  \\    /   O peration     | Version:  2306                                  |
|   \\  /    A nd           | Website:  www.openfoam.com                      |
|    \\/     M anipulation  |                                                 |
\*---------------------------------------------------------------------------*/
FoamFile
{
    version     2.0;
    format      ascii;
    arch        "LSB;label=32;scalar=64";
    class       volScalarField;
    location    "1.28";
    object      p;
}
// * * * * * * * * * * * * * * * * * * * * * * * * * * * * * * * * * * * * * //

dimensions      [0 2 -2 0 0 0 0];

internalField   nonuniform List<scalar> 
47500
(
14.2636
8.31617
5.39827
4.19502
3.55688
3.16766
2.91731
2.7443
2.61606
2.51597
2.43485
2.36709
2.3091
2.25842
2.21333
2.17257
2.13521
2.10052
2.06795
2.03707
2.00753
1.97905
1.95139
1.92438
1.89786
1.87169
1.84577
1.82002
1.79434
1.76868
1.74298
1.71719
1.69129
1.66523
1.63902
1.61262
1.58606
1.55936
1.53258
1.50581
1.47919
1.453
1.42761
1.40364
1.38187
1.363
1.34746
1.33359
1.28841
1.04328
9.49511
7.11983
5.49165
4.53467
3.89692
3.45613
3.14915
2.92822
2.7627
2.63424
2.53143
2.44689
2.37569
2.31445
2.26079
2.21298
2.16974
2.13012
2.09336
2.05889
2.02625
1.99507
1.96506
1.93597
1.9076
1.87978
1.85238
1.82527
1.79836
1.77155
1.74478
1.71797
1.69108
1.66404
1.63683
1.60941
1.58174
1.5538
1.52559
1.49708
1.46827
1.43913
1.40958
1.37942
1.34803
1.31385
1.27372
1.222
1.13978
0.970467
6.67606
5.93528
5.12721
4.46307
3.94452
3.54967
3.25204
3.02532
2.84923
2.70955
2.59636
2.50272
2.42371
2.35582
2.29651
2.24387
2.1965
2.15331
2.11347
2.07631
2.04132
2.00808
1.97623
1.94551
1.91569
1.88656
1.85797
1.82977
1.80185
1.77411
1.74646
1.7188
1.69108
1.66323
1.63517
1.60687
1.57824
1.54923
1.51977
1.48976
1.45906
1.42747
1.39466
1.36002
1.32251
1.28019
1.22989
1.16697
1.0827
0.962358
5.23431
5.05264
4.64952
4.21694
3.83684
3.52091
3.26392
3.0562
2.88764
2.74955
2.63501
2.53866
2.45645
2.38528
2.32281
2.26725
2.21721
2.17161
2.1296
2.09049
2.05375
2.01893
1.98566
1.95366
1.92267
1.89248
1.86292
1.83383
1.80508
1.77656
1.74816
1.71979
1.69136
1.66281
1.63403
1.60497
1.57553
1.54561
1.5151
1.48386
1.45169
1.41829
1.38327
1.34597
1.30545
1.26023
1.2083
1.14714
1.07329
0.983904
4.39926
4.41398
4.22389
3.95437
3.68731
3.44491
3.23307
3.05192
2.89835
2.76817
2.65727
2.56206
2.47956
2.40731
2.34337
2.28616
2.23443
2.18718
2.14359
2.103
2.06488
2.02878
1.99434
1.96126
1.92927
1.89816
1.86774
1.83786
1.80837
1.77914
1.75007
1.72106
1.692
1.66281
1.6334
1.60366
1.57351
1.54282
1.51146
1.47925
1.44598
1.41135
1.37496
1.33628
1.29458
1.24894
1.1983
1.14172
1.07853
1.00976
3.87569
3.95339
3.8749
3.71213
3.52866
3.34703
3.17726
3.02416
2.88873
2.76992
2.66588
2.57456
2.49401
2.4225
2.35852
2.3008
2.24828
2.20009
2.15549
2.11387
2.07474
2.03767
2.00231
1.96834
1.93553
1.90364
1.87249
1.84192
1.81178
1.78194
1.75229
1.7227
1.6931
1.66336
1.63341
1.60312
1.5724
1.54111
1.50912
1.47625
1.44229
1.40699
1.37001
1.33097
1.2894
1.24482
1.19684
1.1454
1.09107
1.03589
3.53079
3.61953
3.5962
3.49996
3.37561
3.24161
3.10812
2.98151
2.86481
2.75891
2.66357
2.57794
2.50098
2.4316
2.36875
2.31149
2.25898
2.21049
2.16542
2.12321
2.08343
2.04567
2.00962
1.97498
1.9415
1.90898
1.87723
1.84609
1.8154
1.78504
1.75488
1.72483
1.69476
1.66459
1.6342
1.60349
1.57235
1.54066
1.50828
1.47506
1.44082
1.40535
1.36842
1.32979
1.28921
1.24653
1.20177
1.1553
1.10809
1.06205
3.29068
3.37293
3.37571
3.32013
3.23647
3.1384
3.03457
2.93124
2.83219
2.73933
2.65339
2.57443
2.50208
2.43579
2.37494
2.31888
2.26702
2.21878
2.17367
2.13125
2.09112
2.05295
2.01643
1.98129
1.94732
1.9143
1.88206
1.85045
1.81931
1.78852
1.75796
1.72752
1.69709
1.66657
1.63586
1.60487
1.57347
1.54157
1.50903
1.47574
1.44155
1.40631
1.36989
1.33217
1.29308
1.25266
1.21116
1.16912
1.12752
1.08791
3.11483
3.18639
3.20096
3.17007
3.11407
3.04249
2.96211
2.87839
2.7951
2.71453
2.63796
2.56599
2.49878
2.43618
2.37792
2.32362
2.27289
2.22533
2.18056
2.13824
2.09804
2.05967
2.02287
1.98741
1.95308
1.91969
1.88707
1.85509
1.82359
1.79246
1.76157
1.73083
1.70013
1.66938
1.63847
1.60731
1.5758
1.54385
1.51136
1.47823
1.44435
1.40965
1.37406
1.33754
1.30016
1.26208
1.22362
1.18537
1.14818
1.11324
2.98097
3.04208
3.06142
3.04551
3.00819
2.95594
2.89377
2.82615
2.75645
2.687
2.6193
2.55426
2.49235
2.43375
2.37843
2.32626
2.27703
2.23048
2.18636
2.14439
2.10435
2.06598
2.02907
1.99343
1.95887
1.92522
1.89233
1.86006
1.82829
1.7969
1.76578
1.73482
1.70394
1.67304
1.64202
1.61082
1.57933
1.54749
1.5152
1.48241
1.44906
1.41509
1.38051
1.34535
1.30974
1.2739
1.23817
1.20311
1.16942
1.13799
2.87615
2.92827
2.94895
2.94211
2.91744
2.87922
2.83105
2.77643
2.71822
2.65856
2.59898
2.54051
2.48383
2.42932
2.37714
2.32733
2.27984
2.23455
2.19129
2.1499
2.11019
2.07199
2.03512
1.99943
1.96475
1.93094
1.89787
1.8654
1.83344
1.80187
1.77058
1.73949
1.7085
1.67754
1.64652
1.61537
1.58401
1.55239
1.52045
1.48814
1.45543
1.42233
1.38886
1.3551
1.32122
1.28745
1.25414
1.22174
1.19086
1.16213
2.79237
2.83706
2.85747
2.85613
2.84004
2.812
2.77454
2.73032
2.68168
2.63048
2.57815
2.52577
2.47408
2.42358
2.37458
2.32725
2.28166
2.23778
2.19556
2.15489
2.11568
2.07778
2.04108
2.00545
1.97075
1.93687
1.9037
1.87112
1.83904
1.80735
1.77597
1.74481
1.71379
1.68285
1.6519
1.62089
1.58976
1.55846
1.52695
1.49521
1.46324
1.43106
1.39873
1.36636
1.33411
1.30222
1.271
1.24085
1.21223
1.18563
2.72442
2.76305
2.78246
2.78443
2.7742
2.75358
2.72429
2.68834
2.64759
2.6036
2.55766
2.51078
2.46373
2.41707
2.3712
2.32638
2.28275
2.24039
2.19932
2.1595
2.12089
2.08342
2.04698
2.0115
1.97688
1.94301
1.90981
1.87719
1.84505
1.81331
1.7819
1.75074
1.71976
1.6889
1.65809
1.62729
1.59645
1.56554
1.53453
1.50343
1.47224
1.441
1.4098
1.37875
1.348
1.31779
1.28839
1.26012
1.23335
1.20847
2.66874
2.70243
2.72058
2.72451
2.7183
2.7031
2.68006
2.65067
2.61638
2.57848
2.53808
2.4961
2.45329
2.41024
2.36736
2.32499
2.28334
2.24254
2.20269
2.1638
2.12589
2.08891
2.05283
2.01758
1.9831
1.94932
1.91616
1.88355
1.85142
1.8197
1.78831
1.75721
1.72632
1.69559
1.66498
1.63444
1.60395
1.57348
1.54302
1.51257
1.48218
1.45188
1.42176
1.39194
1.36257
1.33384
1.30601
1.27933
1.25409
1.2306
2.62282
2.65248
2.66931
2.67438
2.67094
2.65972
2.64147
2.61727
2.58825
2.55545
2.51981
2.48214
2.44315
2.4034
2.36334
2.32332
2.2836
2.24437
2.20576
2.16785
2.13068
2.09427
2.05861
2.02366
1.98939
1.95575
1.92269
1.89015
1.85808
1.82642
1.79512
1.76411
1.73336
1.70282
1.67245
1.64223
1.61212
1.58211
1.55222
1.52245
1.49283
1.46344
1.43434
1.40566
1.37752
1.35012
1.32364
1.2983
1.27435
1.252
2.58483
2.61117
2.62675
2.63244
2.63093
2.62264
2.60806
2.58798
2.56324
2.53469
2.5031
2.46919
2.43359
2.39683
2.35936
2.32154
2.28367
2.24597
2.2086
2.17168
2.13529
2.09949
2.06428
2.02968
1.99567
1.96223
1.92932
1.8969
1.86494
1.83339
1.80221
1.77135
1.74078
1.71047
1.68038
1.65049
1.62079
1.59127
1.56195
1.53285
1.504
1.47546
1.44732
1.41967
1.39265
1.3664
1.34109
1.31691
1.29403
1.27263
2.55339
2.57702
2.59145
2.59745
2.59727
2.59117
2.57941
2.56257
2.54131
2.51627
2.48811
2.45743
2.4248
2.39071
2.35559
2.31981
2.28367
2.24742
2.21125
2.17531
2.13971
2.10453
2.06982
2.0356
2.00189
1.96868
1.93596
1.90371
1.8719
1.8405
1.80947
1.7788
1.74845
1.71839
1.68861
1.65908
1.62981
1.60079
1.57204
1.54359
1.51547
1.48774
1.46048
1.43378
1.40775
1.38252
1.35823
1.33502
1.31305
1.29246
2.52748
2.54889
2.5623
2.56841
2.56916
2.56468
2.5551
2.54083
2.52236
2.50022
2.47492
2.44699
2.41693
2.38519
2.35216
2.31823
2.28368
2.24878
2.21375
2.17875
2.14393
2.10937
2.07516
2.04135
2.00796
1.97502
1.94253
1.91047
1.87885
1.84763
1.81681
1.78635
1.75624
1.72647
1.69701
1.66787
1.63903
1.61051
1.58232
1.55449
1.52707
1.50009
1.47364
1.4478
1.42266
1.39833
1.37492
1.35256
1.33137
1.31145
2.50631
2.52589
2.53844
2.54455
2.54594
2.54266
2.53476
2.52251
2.50628
2.48649
2.46357
2.43796
2.41009
2.38037
2.34919
2.31688
2.28377
2.25011
2.21613
2.18202
2.14793
2.11398
2.08027
2.04687
2.01383
1.98117
1.94893
1.9171
1.88569
1.85469
1.82409
1.79388
1.76404
1.73457
1.70546
1.6767
1.64831
1.62028
1.59264
1.56541
1.53864
1.51237
1.48666
1.46159
1.43725
1.41371
1.39107
1.36944
1.34891
1.32956
2.48927
2.50738
2.51918
2.52523
2.52707
2.52469
2.51806
2.50739
2.49294
2.47505
2.45407
2.43037
2.40434
2.37634
2.34673
2.31585
2.284
2.25143
2.2184
2.1851
2.15169
2.11832
2.0851
2.05211
2.01941
1.98706
1.95508
1.9235
1.89233
1.86157
1.83121
1.80127
1.77172
1.74257
1.71382
1.68546
1.6575
1.62996
1.60284
1.57619
1.55003
1.52442
1.4994
1.47503
1.45139
1.42855
1.4066
1.3856
1.36564
1.34678
2.47588
2.49282
2.50401
2.50997
2.51212
2.5104
2.50473
2.49527
2.48222
2.46584
2.4464
2.42425
2.39972
2.37314
2.34486
2.31518
2.2844
2.25279
2.22059
2.18801
2.15522
2.12238
2.08961
2.05701
2.02465
1.9926
1.9609
1.92959
1.89867
1.86817
1.83808
1.80842
1.77918
1.75037
1.72198
1.69402
1.66649
1.63942
1.61282
1.58672
1.56114
1.53613
1.51173
1.488
1.465
1.44279
1.42143
1.40098
1.38152
1.36308
2.46579
2.48182
2.49253
2.49841
2.50076
2.49951
2.49456
2.48601
2.47401
2.45878
2.44055
2.41961
2.39627
2.37083
2.3436
2.3149
2.28501
2.2542
2.2227
2.19074
2.15849
2.12612
2.09376
2.06153
2.0295
1.99775
1.96633
1.93528
1.90463
1.8744
1.8446
1.81524
1.78632
1.75785
1.72983
1.70227
1.67518
1.64857
1.62246
1.59687
1.57184
1.54739
1.52357
1.50042
1.478
1.45634
1.4355
1.41554
1.39651
1.37843
2.45873
2.4741
2.48444
2.49024
2.49272
2.4918
2.48736
2.47946
2.46822
2.45383
2.43649
2.41645
2.39399
2.36941
2.343
2.31506
2.28586
2.25568
2.22475
2.19329
2.16149
2.12953
2.09753
2.06563
2.0339
2.00244
1.9713
1.94053
1.91015
1.8802
1.85069
1.82164
1.79305
1.76493
1.73728
1.71013
1.68346
1.6573
1.63167
1.60658
1.58205
1.55813
1.53484
1.51222
1.49031
1.46915
1.44878
1.42925
1.41059
1.39283
2.45451
2.46943
2.47953
2.48527
2.48783
2.48711
2.48299
2.47552
2.46478
2.45094
2.43419
2.41476
2.39291
2.36892
2.34308
2.31566
2.28697
2.25724
2.22673
2.19566
2.16422
2.13258
2.10089
2.06928
2.03783
2.00664
1.97577
1.94527
1.91517
1.88551
1.8563
1.82756
1.79931
1.77154
1.74428
1.71751
1.69127
1.66555
1.64037
1.61575
1.59171
1.56827
1.54547
1.52333
1.50189
1.48118
1.46123
1.44207
1.42374
1.40625
2.453
2.4677
2.47767
2.48337
2.48596
2.48534
2.48138
2.47412
2.46364
2.45009
2.43365
2.41454
2.39302
2.36936
2.34383
2.31673
2.28833
2.25889
2.22866
2.19785
2.16666
2.13527
2.10383
2.07246
2.04126
2.01032
1.9797
1.94946
1.91964
1.89027
1.86137
1.83296
1.80504
1.77763
1.75074
1.72437
1.69853
1.67324
1.6485
1.62432
1.60074
1.57776
1.55541
1.53371
1.5127
1.49239
1.47281
1.45399
1.43595
1.4187
2.45415
2.46882
2.47877
2.48446
2.48705
2.48643
2.48248
2.47523
2.46477
2.45125
2.43485
2.41579
2.39432
2.37072
2.34528
2.31827
2.28997
2.26064
2.23053
2.19986
2.16882
2.1376
2.10633
2.07515
2.04416
2.01344
1.98307
1.95308
1.92354
1.89446
1.86586
1.83777
1.8102
1.78315
1.75663
1.73065
1.70521
1.68033
1.65601
1.63226
1.60911
1.58655
1.56462
1.54333
1.52271
1.50276
1.48352
1.46499
1.44721
1.43017
2.45794
2.47279
2.48284
2.48854
2.49109
2.49037
2.48628
2.47884
2.46817
2.45442
2.43779
2.4185
2.39682
2.37303
2.34741
2.32027
2.29187
2.26248
2.23234
2.20168
2.17069
2.13954
2.10839
2.07735
2.04653
2.01601
1.98586
1.95612
1.92684
1.89805
1.86976
1.84199
1.81476
1.78807
1.76192
1.73632
1.71127
1.68679
1.66287
1.63953
1.61678
1.59463
1.57308
1.55217
1.5319
1.51228
1.49334
1.47508
1.45752
1.44067
2.46443
2.47967
2.48993
2.49568
2.49814
2.49722
2.49282
2.48499
2.47386
2.45962
2.44247
2.42267
2.4005
2.37625
2.35023
2.32273
2.29403
2.2644
2.23409
2.20331
2.17226
2.14111
2.11
2.07905
2.04837
2.01801
1.98806
1.95856
1.92954
1.90103
1.87305
1.84561
1.81871
1.79237
1.76659
1.74136
1.7167
1.6926
1.66907
1.64611
1.62374
1.60196
1.58078
1.56021
1.54026
1.52094
1.50227
1.48425
1.4669
1.45021
2.47373
2.48959
2.50019
2.50599
2.50831
2.50707
2.50218
2.49373
2.48189
2.46686
2.44891
2.4283
2.40536
2.38039
2.35371
2.32563
2.29643
2.2664
2.23576
2.20474
2.17354
2.1423
2.11117
2.08026
2.04967
2.01946
1.98969
1.96041
1.93164
1.90341
1.87573
1.8486
1.82204
1.79605
1.77062
1.74576
1.72147
1.69774
1.67458
1.65199
1.62998
1.60855
1.5877
1.56744
1.54779
1.52875
1.51032
1.49251
1.47534
1.45879
2.48604
2.50276
2.5138
2.51968
2.52179
2.52007
2.51448
2.50516
2.49231
2.4762
2.45712
2.4354
2.41138
2.38541
2.35783
2.32894
2.29905
2.26844
2.23734
2.20597
2.1745
2.1431
2.1119
2.08098
2.05045
2.02036
1.99076
1.96168
1.93315
1.90519
1.8778
1.851
1.82477
1.79911
1.77404
1.74953
1.72559
1.70222
1.67941
1.65717
1.63549
1.61438
1.59385
1.57388
1.5545
1.5357
1.51749
1.49988
1.48286
1.46644
2.5016
2.51945
2.53106
2.53701
2.53881
2.53644
2.52991
2.5194
2.50521
2.48767
2.46712
2.44395
2.41856
2.3913
2.36255
2.33263
2.30186
2.27051
2.23881
2.20697
2.17516
2.14353
2.11218
2.08123
2.05072
2.02072
1.99127
1.96239
1.9341
1.9064
1.8793
1.8528
1.82689
1.80157
1.77683
1.75267
1.72908
1.70604
1.68357
1.66165
1.64029
1.61948
1.59923
1.57953
1.5604
1.54182
1.52381
1.50636
1.48948
1.47317
2.52077
2.54004
2.55237
2.55836
2.55971
2.55645
2.54866
2.53662
2.5207
2.50133
2.47893
2.45395
2.42684
2.398
2.36782
2.33666
2.30481
2.27256
2.24013
2.20773
2.17549
2.14356
2.11204
2.081
2.0505
2.02058
1.99126
1.96256
1.93449
1.90705
1.88024
1.85404
1.82844
1.80345
1.77904
1.7552
1.73193
1.70922
1.68707
1.66546
1.64439
1.62386
1.60387
1.58441
1.5655
1.54712
1.52928
1.51199
1.49523
1.47901
2.54401
2.56505
2.57823
2.5842
2.5849
2.58045
2.57101
2.55699
2.53889
2.51723
2.49254
2.46536
2.43617
2.40544
2.37358
2.34094
2.30784
2.27455
2.24128
2.20821
2.17549
2.14321
2.11147
2.08032
2.0498
2.01994
1.99074
1.96222
1.93437
1.90718
1.88064
1.85473
1.82945
1.80476
1.78067
1.75715
1.73419
1.71178
1.68992
1.66859
1.6478
1.62753
1.60777
1.58854
1.56983
1.55163
1.53395
1.51678
1.50013
1.48398
2.57191
2.59514
2.6093
2.61514
2.61491
2.60886
2.59727
2.58073
2.55989
2.53542
2.50796
2.47813
2.44649
2.41354
2.37972
2.3454
2.31088
2.27641
2.2422
2.2084
2.17512
2.14246
2.11047
2.07919
2.04864
2.01883
1.98976
1.96141
1.93377
1.90682
1.88055
1.85492
1.82993
1.80554
1.78175
1.75853
1.73586
1.71374
1.69216
1.6711
1.65055
1.63051
1.61098
1.59194
1.57341
1.55537
1.53782
1.52076
1.5042
1.48812
2.60527
2.63116
2.64643
2.65196
2.6504
2.64219
2.62781
2.60807
2.58382
2.55591
2.52511
2.49216
2.45766
2.42217
2.38614
2.34992
2.31382
2.27807
2.24283
2.20823
2.17437
2.1413
2.10904
2.07763
2.04704
2.01728
1.98832
1.96013
1.9327
1.90599
1.87998
1.85463
1.82992
1.80582
1.78231
1.75937
1.73698
1.71513
1.6938
1.67298
1.65266
1.63284
1.6135
1.59464
1.57626
1.55836
1.54093
1.52397
1.50748
1.49146
2.64508
2.67424
2.69074
2.69565
2.69217
2.68104
2.66302
2.63923
2.61076
2.57868
2.54392
2.50731
2.46954
2.43117
2.39266
2.35437
2.31656
2.27942
2.2431
2.20767
2.1732
2.1397
2.10718
2.07563
2.04501
2.01529
1.98645
1.95843
1.93121
1.90473
1.87897
1.85388
1.82944
1.80562
1.78238
1.75971
1.73758
1.71597
1.69488
1.67428
1.65417
1.63453
1.61537
1.59667
1.57843
1.56064
1.54331
1.52644
1.51001
1.49402
2.69272
2.72587
2.74367
2.74743
2.74119
2.72611
2.70335
2.67441
2.64075
2.60364
2.56421
2.52337
2.48188
2.44031
2.39909
2.35856
2.31893
2.28035
2.24291
2.20664
2.17156
2.13764
2.10487
2.07319
2.04254
2.01289
1.98417
1.95632
1.9293
1.90306
1.87754
1.85272
1.82854
1.80497
1.78199
1.75957
1.73768
1.7163
1.69542
1.67502
1.65509
1.63563
1.61662
1.59805
1.57993
1.56225
1.545
1.52819
1.5118
1.49585
2.75
2.78805
2.8071
2.80889
2.79865
2.77817
2.74921
2.71377
2.67371
2.63059
2.5857
2.54004
2.49439
2.4493
2.40518
2.36228
2.32076
2.28071
2.24214
2.20505
2.16938
2.13508
2.10207
2.07029
2.03965
2.01007
1.98149
1.95382
1.92701
1.901
1.87573
1.85115
1.82722
1.8039
1.78116
1.75897
1.7373
1.71613
1.69544
1.67523
1.65547
1.63615
1.61727
1.59883
1.5808
1.5632
1.54602
1.52926
1.51291
1.49697
2.81942
2.8635
2.88352
2.88201
2.86593
2.83808
2.80099
2.75734
2.70945
2.65918
2.60797
2.55688
2.50664
2.45778
2.41059
2.36525
2.32183
2.28032
2.24066
2.20279
2.16658
2.13194
2.09876
2.06691
2.03631
2.00683
1.9784
1.95093
1.92434
1.89856
1.87353
1.84919
1.82551
1.80243
1.77991
1.75794
1.73647
1.71549
1.69498
1.67493
1.65531
1.63613
1.61737
1.59902
1.58108
1.56355
1.54642
1.52969
1.51336
1.49743
2.90452
2.956
2.9763
2.9693
2.94466
2.90666
2.85891
2.80491
2.74751
2.68884
2.63042
2.57329
2.51811
2.46526
2.41493
2.36714
2.32186
2.27896
2.2383
2.19973
2.16307
2.12817
2.09487
2.06302
2.03249
2.00315
1.97491
1.94765
1.92129
1.89575
1.87096
1.84687
1.82342
1.80056
1.77826
1.75649
1.73522
1.71441
1.69406
1.67415
1.65466
1.63559
1.61692
1.59866
1.58079
1.56331
1.54622
1.52951
1.51319
1.49726
3.0105
3.07097
3.08992
3.07386
3.03661
2.98462
2.92291
2.85596
2.78711
2.71868
2.65217
2.58848
2.52809
2.47117
2.4177
2.36755
2.32052
2.27637
2.23485
2.19571
2.15871
2.12365
2.09032
2.05854
2.02815
1.999
1.97098
1.94396
1.91785
1.89256
1.86803
1.84418
1.82096
1.79832
1.77623
1.75465
1.73355
1.71291
1.6927
1.67292
1.65354
1.63457
1.61598
1.59778
1.57996
1.56252
1.54545
1.52876
1.51244
1.4965
3.14537
3.21626
3.23046
3.19945
3.14354
3.07226
2.99239
2.90936
2.82694
2.7474
2.67203
2.60141
2.53569
2.47475
2.41831
2.36601
2.31745
2.27226
2.23007
2.19054
2.15337
2.11828
2.08503
2.05341
2.02324
1.99434
1.96658
1.93984
1.914
1.88899
1.86472
1.84112
1.81813
1.79571
1.77382
1.75243
1.73149
1.71099
1.69092
1.67125
1.65197
1.63308
1.61456
1.59641
1.57863
1.56121
1.54416
1.52747
1.51114
1.49518
3.32203
3.40362
3.40604
3.35037
3.26684
3.16911
3.0658
2.96317
2.86499
2.77315
2.68838
2.61072
2.53983
2.47516
2.41608
2.36196
2.31222
2.2663
2.22371
2.18403
2.14687
2.11193
2.0789
2.04756
2.01769
1.98911
1.96168
1.93526
1.90974
1.88502
1.86102
1.83768
1.81494
1.79274
1.77105
1.74983
1.72905
1.70869
1.68874
1.66917
1.64998
1.63116
1.61269
1.59458
1.57683
1.55943
1.54238
1.52568
1.50933
1.49334
3.56275
3.65086
3.6272
3.53091
3.40671
3.27306
3.14011
3.01418
2.89831
2.79339
2.69915
2.61477
2.53921
2.47137
2.41022
2.35482
2.30436
2.25811
2.21548
2.17594
2.13905
2.10445
2.07181
2.04088
2.01143
1.98326
1.95623
1.93018
1.90502
1.88063
1.85693
1.83387
1.81138
1.7894
1.76791
1.74687
1.72625
1.70602
1.68618
1.66671
1.64759
1.62882
1.6104
1.59233
1.57459
1.55719
1.54013
1.52341
1.50704
1.49101
3.90806
3.98518
3.9064
3.74361
3.56032
3.37903
3.20976
3.0573
2.92264
2.80473
2.70171
2.61156
2.53232
2.46226
2.39988
2.34394
2.29338
2.24733
2.20508
2.16604
2.12971
2.09569
2.06364
2.03328
2.00438
1.97673
1.95017
1.92457
1.89981
1.87579
1.85243
1.82967
1.80744
1.7857
1.76442
1.74355
1.72308
1.70299
1.68326
1.66387
1.64482
1.62611
1.60772
1.58966
1.57193
1.55453
1.53745
1.52071
1.5043
1.48823
4.43183
4.44605
4.25572
3.9862
3.7193
3.47721
3.26581
3.08522
2.93234
2.80296
2.69299
2.59885
2.51755
2.44665
2.38422
2.32869
2.27882
2.23361
2.19226
2.15413
2.1187
2.08554
2.0543
2.02469
1.99647
1.96946
1.94347
1.91839
1.8941
1.87049
1.84751
1.82507
1.80313
1.78164
1.76057
1.73989
1.71958
1.69962
1.67999
1.66068
1.6417
1.62303
1.60467
1.58662
1.56889
1.55147
1.53437
1.51759
1.50114
1.48502
5.2669
5.08481
4.6815
4.24891
3.86894
3.55325
3.29661
3.08935
2.92137
2.78398
2.67026
2.57487
2.49375
2.42383
2.36277
2.30878
2.26049
2.21683
2.17695
2.14018
2.106
2.07399
2.04378
2.01511
1.98773
1.96147
1.93616
1.91167
1.8879
1.86477
1.84219
1.82011
1.79848
1.77726
1.75642
1.73593
1.71578
1.69594
1.67642
1.65719
1.63827
1.61963
1.6013
1.58326
1.56551
1.54807
1.53094
1.51412
1.49762
1.48145
6.7085
5.9674
5.15916
4.49498
3.97648
3.58177
3.28438
3.05801
2.88238
2.74329
2.63082
2.53804
2.46002
2.39328
2.33526
2.28409
2.23836
2.19699
2.15916
2.12422
2.09166
2.06108
2.03214
2.00459
1.9782
1.95281
1.92827
1.90445
1.88128
1.85866
1.83652
1.81483
1.79353
1.7726
1.752
1.73171
1.71172
1.69202
1.6726
1.65345
1.63458
1.61598
1.59765
1.57961
1.56185
1.54439
1.52721
1.51035
1.49379
1.47755
9.52728
7.15176
5.52338
4.56626
3.92844
3.48767
3.1808
2.9601
2.79493
2.66694
2.56474
2.48094
2.41063
2.35042
2.29795
2.25148
2.20976
2.17183
2.13694
2.10455
2.07418
2.0455
2.01821
1.9921
1.96696
1.94265
1.91906
1.89607
1.8736
1.8516
1.83
1.80876
1.78785
1.76724
1.74692
1.72686
1.70705
1.68749
1.66818
1.64912
1.6303
1.61173
1.59341
1.57536
1.55757
1.54007
1.52284
1.50591
1.48929
1.47297
14.2955
8.34783
5.42962
4.22606
3.58768
3.19833
2.94794
2.77503
2.647
2.54727
2.46662
2.39949
2.34225
2.29248
2.24844
2.20889
2.17289
2.13973
2.10887
2.07989
2.05243
2.02624
2.0011
1.97682
1.95328
1.93035
1.90794
1.88597
1.86439
1.84315
1.8222
1.80151
1.78107
1.76086
1.74086
1.72106
1.70147
1.68208
1.66289
1.64391
1.62515
1.6066
1.58829
1.57022
1.55239
1.53483
1.51753
1.50052
1.48381
1.46739
1.01267
1.01222
1.01134
1.01028
1.00922
1.00832
1.00767
1.00734
1.00736
1.00776
1.00856
1.00976
1.01135
1.01332
1.01566
1.01835
1.02137
1.0247
1.02832
1.03221
1.03633
1.04067
1.0452
1.04989
1.05473
1.05969
1.06475
1.06989
1.07508
1.0803
1.08554
1.09078
1.09599
1.10116
1.10628
1.11133
1.11629
1.12115
1.12591
1.13054
1.13504
1.1394
1.1436
1.14765
1.15153
1.15524
1.15877
1.16212
1.16528
1.16824
1.17102
1.17359
1.17597
1.17815
1.18013
1.1819
1.18348
1.18486
1.18604
1.18702
1.18781
1.18841
1.18882
1.18904
1.18908
1.18894
1.18862
1.18813
1.18747
1.18664
1.18566
1.18452
1.18323
1.18179
1.18021
1.17849
1.17664
1.17466
1.17256
1.17033
1.168
1.16555
1.163
1.16035
1.15761
1.15477
1.15184
1.14884
1.14575
1.14259
1.13936
1.13606
1.1327
1.12928
1.12581
1.12228
1.11871
1.11509
1.11143
1.10773
1.104
1.10023
1.09643
1.09261
1.08876
1.08489
1.081
1.07709
1.07317
1.06923
1.06529
1.06133
1.05736
1.05339
1.04942
1.04544
1.04146
1.03748
1.03351
1.02953
1.02556
1.0216
1.01764
1.01368
1.00974
1.0058
1.00187
0.997952
0.994045
0.990148
0.986264
0.982391
0.978531
0.974685
0.970851
0.967032
0.963226
0.959435
0.955659
0.951897
0.94815
0.944418
0.940701
0.936999
0.933313
0.929642
0.925986
0.922345
0.91872
0.91511
0.911515
0.907935
0.90437
0.900819
0.897284
0.893763
0.890256
0.886764
0.883285
0.879821
0.87637
0.872933
0.869509
0.866098
0.8627
0.859315
0.855943
0.852582
0.849234
0.845898
0.842573
0.839259
0.835957
0.832666
0.829385
0.826115
0.822855
0.819605
0.816365
0.813134
0.809913
0.806701
0.803497
0.800302
0.797116
0.793938
0.790768
0.787605
0.78445
0.781303
0.778162
0.775029
0.771902
0.768782
0.765668
0.76256
0.759459
0.756363
0.753272
0.750187
0.747107
0.744033
0.740963
0.737898
0.734837
0.731781
0.728729
0.725681
0.722638
0.719598
0.716561
0.713529
0.710499
0.707473
0.70445
0.70143
0.698413
0.695399
0.692387
0.689378
0.686371
0.683366
0.680364
0.677364
0.674366
0.671369
0.668375
0.665382
0.662391
0.659401
0.656413
0.653426
0.650441
0.647457
0.644474
0.641491
0.63851
0.63553
0.632551
0.629573
0.626595
0.623618
0.620642
0.617666
0.614691
0.611716
0.608742
0.605768
0.602794
0.599821
0.596848
0.593875
0.590902
0.58793
0.584957
0.581985
0.579013
0.576041
0.573069
0.570096
0.567124
0.564152
0.561179
0.558207
0.555234
0.552261
0.549288
0.546315
0.543341
0.540368
0.537394
0.53442
0.531445
0.528471
0.525496
0.52252
0.519545
0.516569
0.513593
0.510616
0.507639
0.504662
0.501685
0.498707
0.495728
0.49275
0.489771
0.486792
0.483812
0.480832
0.477852
0.474871
0.47189
0.468908
0.465926
0.462944
0.459962
0.456979
0.453996
0.451012
0.448028
0.445043
0.442059
0.439074
0.436088
0.433102
0.430116
0.42713
0.424143
0.421156
0.418169
0.415181
0.412193
0.409204
0.406216
0.403227
0.400237
0.397248
0.394258
0.391268
0.388277
0.385287
0.382296
0.379304
0.376313
0.373321
0.370329
0.367337
0.364344
0.361352
0.358359
0.355366
0.352372
0.349379
0.346385
0.343391
0.340397
0.337402
0.334408
0.331413
0.328418
0.325423
0.322428
0.319432
0.316437
0.313441
0.310445
0.307449
0.304453
0.301457
0.29846
0.295464
0.292467
0.28947
0.286473
0.283476
0.280479
0.277482
0.274484
0.271487
0.268489
0.265492
0.262494
0.259496
0.256498
0.2535
0.250501
0.247503
0.244505
0.241506
0.238508
0.235509
0.23251
0.229511
0.226513
0.223514
0.220515
0.217515
0.214516
0.211517
0.208518
0.205518
0.202519
0.199519
0.19652
0.19352
0.190521
0.187521
0.184521
0.181521
0.178522
0.175522
0.172522
0.169522
0.166522
0.163522
0.160522
0.157522
0.154522
0.151521
0.148521
0.145521
0.142521
0.139521
0.13652
0.13352
0.13052
0.12752
0.124519
0.121519
0.118519
0.115518
0.112518
0.109518
0.106517
0.103517
0.100517
0.0975165
0.0945162
0.0915159
0.0885155
0.0855152
0.0825149
0.0795145
0.0765142
0.0735138
0.0705135
0.0675131
0.0645127
0.0615124
0.058512
0.0555116
0.0525113
0.0495109
0.0465106
0.0435102
0.0405098
0.0375095
0.0345091
0.0315088
0.0285084
0.025508
0.0225076
0.0195072
0.0165067
0.0135062
0.0105055
0.00750483
0.00450397
0.0015021
1.01313
1.01267
1.01198
1.01119
1.01042
1.00978
1.00935
1.00919
1.00935
1.00984
1.01068
1.01187
1.01342
1.01533
1.01757
1.02014
1.02302
1.02618
1.02963
1.03332
1.03724
1.04137
1.04568
1.05016
1.05478
1.05953
1.06437
1.06928
1.07426
1.07927
1.08431
1.08934
1.09437
1.09935
1.10429
1.10917
1.11398
1.11869
1.1233
1.1278
1.13217
1.13642
1.14052
1.14447
1.14826
1.15188
1.15534
1.15862
1.16173
1.16465
1.16738
1.16992
1.17227
1.17443
1.1764
1.17817
1.17975
1.18113
1.18232
1.18332
1.18413
1.18476
1.18519
1.18545
1.18553
1.18543
1.18515
1.18471
1.1841
1.18333
1.1824
1.18132
1.18009
1.17871
1.17719
1.17554
1.17375
1.17184
1.1698
1.16765
1.16538
1.163
1.16052
1.15794
1.15526
1.15249
1.14964
1.1467
1.14368
1.14058
1.13742
1.13419
1.13089
1.12754
1.12413
1.12066
1.11715
1.11359
1.10999
1.10635
1.10267
1.09896
1.09522
1.09145
1.08765
1.08383
1.07999
1.07613
1.07226
1.06837
1.06446
1.06055
1.05663
1.0527
1.04876
1.04482
1.04088
1.03694
1.03299
1.02905
1.02512
1.02118
1.01725
1.01333
1.00941
1.0055
1.00159
0.997701
0.993818
0.989944
0.986081
0.98223
0.97839
0.974562
0.970747
0.966945
0.963156
0.959381
0.95562
0.951872
0.948139
0.94442
0.940715
0.937025
0.93335
0.929689
0.926043
0.922412
0.918795
0.915193
0.911605
0.908033
0.904474
0.90093
0.8974
0.893884
0.890382
0.886894
0.88342
0.87996
0.876512
0.873078
0.869657
0.866249
0.862853
0.85947
0.856099
0.85274
0.849393
0.846057
0.842733
0.83942
0.836118
0.832827
0.829546
0.826275
0.823015
0.819765
0.816524
0.813292
0.81007
0.806856
0.803652
0.800456
0.797268
0.794088
0.790916
0.787752
0.784596
0.781446
0.778304
0.775169
0.77204
0.768918
0.765802
0.762692
0.759588
0.75649
0.753397
0.75031
0.747228
0.744151
0.741079
0.738012
0.734949
0.73189
0.728836
0.725786
0.72274
0.719698
0.716659
0.713624
0.710593
0.707564
0.704539
0.701517
0.698498
0.695481
0.692467
0.689456
0.686447
0.683441
0.680436
0.677434
0.674434
0.671436
0.668439
0.665445
0.662452
0.65946
0.65647
0.653482
0.650495
0.647509
0.644524
0.64154
0.638557
0.635576
0.632595
0.629615
0.626636
0.623657
0.62068
0.617702
0.614726
0.61175
0.608774
0.605799
0.602824
0.59985
0.596875
0.593901
0.590928
0.587954
0.584981
0.582007
0.579034
0.576061
0.573088
0.570115
0.567142
0.564168
0.561195
0.558222
0.555248
0.552274
0.549301
0.546327
0.543353
0.540378
0.537404
0.534429
0.531454
0.528479
0.525503
0.522527
0.519551
0.516575
0.513598
0.510621
0.507644
0.504666
0.501688
0.49871
0.495731
0.492752
0.489773
0.486793
0.483813
0.480833
0.477852
0.474871
0.47189
0.468908
0.465926
0.462944
0.459961
0.456978
0.453994
0.45101
0.448026
0.445042
0.442057
0.439072
0.436086
0.4331
0.430114
0.427127
0.42414
0.421153
0.418166
0.415178
0.41219
0.409201
0.406213
0.403223
0.400234
0.397245
0.394255
0.391264
0.388274
0.385283
0.382292
0.379301
0.376309
0.373318
0.370326
0.367333
0.364341
0.361348
0.358355
0.355362
0.352369
0.349375
0.346381
0.343387
0.340393
0.337399
0.334404
0.331409
0.328415
0.32542
0.322424
0.319429
0.316433
0.313438
0.310442
0.307446
0.30445
0.301453
0.298457
0.295461
0.292464
0.289467
0.28647
0.283473
0.280476
0.277479
0.274482
0.271484
0.268486
0.265489
0.262491
0.259493
0.256495
0.253497
0.250499
0.247501
0.244502
0.241504
0.238505
0.235507
0.232508
0.229509
0.22651
0.223511
0.220513
0.217513
0.214514
0.211515
0.208516
0.205517
0.202517
0.199518
0.196518
0.193519
0.190519
0.187519
0.18452
0.18152
0.17852
0.17552
0.17252
0.16952
0.166521
0.163521
0.160521
0.15752
0.15452
0.15152
0.14852
0.14552
0.14252
0.13952
0.136519
0.133519
0.130519
0.127519
0.124518
0.121518
0.118518
0.115518
0.112517
0.109517
0.106517
0.103516
0.100516
0.0975159
0.0945156
0.0915153
0.088515
0.0855146
0.0825143
0.079514
0.0765137
0.0735133
0.070513
0.0675127
0.0645123
0.061512
0.0585116
0.0555112
0.0525109
0.0495105
0.0465102
0.0435098
0.0405095
0.0375091
0.0345087
0.0315084
0.028508
0.0255076
0.0225071
0.0195067
0.0165061
0.0135056
0.0105049
0.00750414
0.00450335
0.00150185
1.014
1.01336
1.01267
1.01198
1.01134
1.01085
1.01055
1.01051
1.01075
1.01129
1.01216
1.01336
1.01488
1.01674
1.01891
1.02138
1.02415
1.0272
1.03051
1.03405
1.03782
1.04179
1.04594
1.05025
1.0547
1.05927
1.06394
1.06868
1.07349
1.07834
1.08322
1.08809
1.09296
1.09781
1.10261
1.10735
1.11203
1.11662
1.12112
1.12551
1.12978
1.13393
1.13795
1.14182
1.14554
1.1491
1.1525
1.15573
1.15879
1.16167
1.16437
1.16688
1.16921
1.17135
1.17331
1.17508
1.17665
1.17804
1.17924
1.18025
1.18108
1.18172
1.18218
1.18247
1.18257
1.18251
1.18227
1.18186
1.1813
1.18057
1.17968
1.17865
1.17746
1.17614
1.17467
1.17307
1.17133
1.16947
1.16749
1.16539
1.16318
1.16086
1.15843
1.15591
1.15329
1.15057
1.14777
1.14489
1.14193
1.13889
1.13578
1.1326
1.12936
1.12606
1.1227
1.11929
1.11582
1.11232
1.10876
1.10517
1.10154
1.09787
1.09418
1.09045
1.0867
1.08292
1.07912
1.0753
1.07146
1.06761
1.06375
1.05987
1.05598
1.05209
1.04818
1.04428
1.04037
1.03645
1.03254
1.02863
1.02472
1.02081
1.0169
1.013
1.00911
1.00522
1.00134
0.997469
0.993605
0.989751
0.985907
0.982074
0.978251
0.97444
0.970641
0.966854
0.96308
0.959318
0.95557
0.951835
0.948114
0.944406
0.940712
0.937032
0.933367
0.929715
0.926078
0.922454
0.918845
0.91525
0.91167
0.908103
0.904551
0.901012
0.897487
0.893976
0.890479
0.886995
0.883525
0.880068
0.876624
0.873192
0.869774
0.866368
0.862974
0.859593
0.856224
0.852866
0.84952
0.846186
0.842862
0.83955
0.836248
0.832957
0.829677
0.826406
0.823146
0.819895
0.816654
0.813422
0.810199
0.806985
0.803779
0.800582
0.797393
0.794212
0.791039
0.787874
0.784716
0.781565
0.778422