/*--------------------------------*- C++ -*----------------------------------*\
| =========                 |                                                 |
| \\      /  F ield         | OpenFOAM: The Open Source CFD Toolbox           |
|  \\    /   O peration     | Version:  2306                                  |
|   \\  /    A nd           | Website:  www.openfoam.com                      |
|    \\/     M anipulation  |                                                 |
\*---------------------------------------------------------------------------*/
FoamFile
{
    version     2.0;
    format      ascii;
    arch        "LSB;label=32;scalar=64";
    class       volScalarField;
    location    "4.17";
    object      p;
}
// * * * * * * * * * * * * * * * * * * * * * * * * * * * * * * * * * * * * * //

dimensions      [0 2 -2 0 0 0 0];

internalField   nonuniform List<scalar> 
1900
(
0.0567086
0.0324858
0.0120923
-0.00325078
-0.014274
-0.0248345
-0.0352827
-0.047457
-0.060024
-0.0740954
0.0274478
0.019249
0.0079317
-0.00362306
-0.0146508
-0.0248428
-0.0352818
-0.0458022
-0.0573073
-0.0683682
0.0183558
0.0138649
0.00634858
-0.00302074
-0.0131059
-0.0230866
-0.0328677
-0.0424221
-0.0518513
-0.0609399
0.0126557
0.00958221
0.00393209
-0.00371672
-0.0125689
-0.0218098
-0.0310017
-0.0399165
-0.0485105
-0.0566705
0.0104327
0.0078973
0.00315866
-0.00348933
-0.0114679
-0.020071
-0.0287452
-0.0371677
-0.0451886
-0.0527185
0.011068
0.0085874
0.00397697
-0.0024876
-0.0102254
-0.018528
-0.0268363
-0.0348331
-0.042394
-0.0494901
0.0145246
0.0115789
0.00629833
-0.000783841
-0.00884267
-0.0171276
-0.0251728
-0.0328008
-0.0400034
-0.0468152
0.0212245
0.0169294
0.0100326
0.00156507
-0.00725289
-0.0156746
-0.0235041
-0.0308351
-0.037817
-0.0445115
0.0313661
0.0232675
0.0128326
0.00237357
-0.00693076
-0.0150389
-0.022403
-0.0294457
-0.0363305
-0.0430168
0.0602167
0.0375449
0.0178395
0.0037789
-0.00587541
-0.0135665
-0.0207903
-0.0280017
-0.0351507
-0.0420315
-0.0973174
-0.0973508
-0.0973957
-0.0974498
-0.0975101
-0.0975763
-0.0976478
-0.0977237
-0.0978025
-0.0978828
-0.097963
-0.0980413
-0.0981161
-0.0981857
-0.0982485
-0.0983028
-0.0983473
-0.0983806
-0.0984013
-0.0984085
-0.0984011
-0.0983784
-0.0983398
-0.0982847
-0.0982128
-0.0981238
-0.0980176
-0.097894
-0.097753
-0.0975946
-0.0974187
-0.0972255
-0.097015
-0.0967876
-0.0965433
-0.0962817
-0.0960011
-0.095698
-0.0953653
-0.0949917
-0.0945594
-0.0940443
-0.0934156
-0.0926368
-0.091667
-0.0904622
-0.0889741
-0.0871483
-0.0849218
-0.0822231
-0.0789746
-0.0750976
-0.0705198
-0.0651931
-0.0590956
-0.0522441
-0.0447007
-0.0365473
-0.0279
-0.0189103
-0.00975156
-0.000603151
0.00835025
0.016929
0.0249671
0.0323187
0.0388709
0.0445396
0.0492637
0.0530223
0.055811
0.0576612
0.0586111
0.0587299
0.0580817
0.0567541
0.0548178
0.0523653
0.0494611
0.0461907
0.0426021
0.0387684
0.0347154
0.0305043
0.026134
0.0216594
0.0170458
0.0123574
0.00750435
0.0026017
-0.097313
-0.0973446
-0.0973716
-0.0974132
-0.0974644
-0.097524
-0.0975903
-0.0976617
-0.0977366
-0.0978135
-0.0978908
-0.0979667
-0.0980396
-0.0981076
-0.0981691
-0.0982225
-0.0982662
-0.0982989
-0.0983192
-0.0983259
-0.0983181
-0.0982949
-0.0982554
-0.0981993
-0.0981259
-0.098035
-0.0979262
-0.0977994
-0.0976544
-0.0974909
-0.0973089
-0.097108
-0.0968879
-0.0966482
-0.0963881
-0.0961067
-0.095802
-0.0954705
-0.0951063
-0.0947003
-0.0942391
-0.0937048
-0.093074
-0.0923177
-0.0914007
-0.0902812
-0.0889101
-0.0872284
-0.0851637
-0.0826304
-0.0795313
-0.0757726
-0.07129
-0.0660605
-0.0600684
-0.0533145
-0.0458315
-0.0377105
-0.0290728
-0.0200728
-0.0108896
-0.00170895
0.00728242
0.0158975
0.0239664
0.0313605
0.0379309
0.0436199
0.0483613
0.0521371
0.0549398
0.0568045
0.0577669
0.0579014
0.0572683
0.0559632
0.0540515
0.0516322
0.0487602
0.0455311
0.0419805
0.0381956
0.0341858
0.0300306
0.0257089
0.0212966
0.0167364
0.0121091
0.00732778
0.00251422
-0.0971953
-0.0972766
-0.0973221
-0.0973757
-0.097432
-0.0974935
-0.0975614
-0.0976346
-0.0977118
-0.0977914
-0.0978716
-0.0979507
-0.0980269
-0.0980983
-0.0981632
-0.0982198
-0.0982667
-0.0983023
-0.0983251
-0.0983339
-0.0983276
-0.0983054
-0.0982665
-0.0982104
-0.0981365
-0.0980447
-0.0979348
-0.0978067
-0.0976604
-0.0974961
-0.0973134
-0.0971123
-0.096892
-0.0966517
-0.0963905
-0.0961068
-0.0957982
-0.0954611
-0.0950907
-0.0946806
-0.0942221
-0.093704
-0.0931115
-0.0924238
-0.0916097
-0.0906251
-0.0894144
-0.0879087
-0.0860214
-0.0836539
-0.0807123
-0.0771118
-0.0727604
-0.0675946
-0.0616049
-0.0548237
-0.0473088
-0.0391597
-0.0304957
-0.0214572
-0.0122632
-0.00308597
0.0058899
0.0144897
0.0225412
0.029907
0.0364547
0.0421143
0.0468243
0.0505708
0.0533463
0.0551911
0.0561403
0.0562734
0.0556486
0.0543654
0.0524853
0.0501123
0.0472972
0.0441393
0.0406703
0.0369802
0.0330757
0.0290371
0.0248434
0.0205679
0.0161616
0.0116972
0.00710428
0.00246718
-0.0972775
-0.0973512
-0.0973554
-0.0973813
-0.097427
-0.0974891
-0.0975625
-0.0976432
-0.0977287
-0.0978168
-0.0979054
-0.0979925
-0.0980759
-0.0981539
-0.0982246
-0.0982863
-0.0983373
-0.0983761
-0.0984012
-0.0984115
-0.0984059
-0.0983834
-0.0983435
-0.0982856
-0.0982094
-0.0981144
-0.0980009
-0.097869
-0.0977188
-0.0975505
-0.0973643
-0.0971597
-0.0969362
-0.0966923
-0.0964265
-0.0961376
-0.0958237
-0.095483
-0.0951129
-0.0947094
-0.0942662
-0.0937758
-0.0932298
-0.0926117
-0.0918905
-0.0910162
-0.0899228
-0.0885428
-0.086782
-0.0845301
-0.0816744
-0.0781251
-0.0738151
-0.0686883
-0.062738
-0.0559949
-0.0485195
-0.0404173
-0.0318154
-0.0228697
-0.0137742
-0.00471577
0.00411939
0.0125615
0.020442
0.0276309
0.0340074
0.0395002
0.0440541
0.0476608
0.0503184
0.0520708
0.0529567
0.0530573
0.0524322
0.05118
0.0493629
0.0470818
0.0443886
0.0413774
0.0380815
0.0345838
0.0308954
0.0270873
0.0231473
0.0191371
0.0150223
0.0108589
0.00659157
0.00227641
-0.0969508
-0.0971562
-0.0972471
-0.0973513
-0.09745
-0.0975434
-0.097636
-0.0977313
-0.0978289
-0.0979272
-0.0980245
-0.0981187
-0.0982081
-0.0982907
-0.0983648
-0.0984287
-0.0984809
-0.0985198
-0.0985439
-0.098552
-0.0985432
-0.0985167
-0.098472
-0.0984087
-0.0983266
-0.0982256
-0.098106
-0.0979683
-0.0978131
-0.0976406
-0.0974512
-0.0972446
-0.0970197
-0.0967747
-0.0965076
-0.0962176
-0.0959035
-0.095564
-0.0951979
-0.0948028
-0.0943735
-0.0939017
-0.0933871
-0.0928091
-0.0921401
-0.0913153
-0.0902677
-0.088912
-0.0871602
-0.0849121
-0.0820592
-0.0785157
-0.0742108
-0.0691052
-0.0631943
-0.056516
-0.0491396
-0.0411723
-0.0327495
-0.0240297
-0.0151938
-0.00642777
0.00208577
0.0101827
0.0177084
0.0245401
0.0305724
0.0357404
0.0399993
0.0433468
0.0457907
0.0473778
0.0481533
0.0481963
0.0475703
0.0463678
0.0446538
0.0425201
0.0400212
0.0372402
0.0342142
0.0310135
0.0276559
0.0241986
0.0206401
0.0170268
0.0133393
0.00961671
0.00582422
0.00200183
-0.0977829
-0.0978054
-0.0977042
-0.0976592
-0.0976698
-0.0977277
-0.0978157
-0.0979167
-0.0980199
-0.0981218
-0.0982205
-0.0983142
-0.0984013
-0.0984802
-0.0985494
-0.0986075
-0.0986532
-0.0986851
-0.0987018
-0.0987021
-0.0986852
-0.0986506
-0.0985978
-0.0985269
-0.0984377
-0.0983299
-0.0982041
-0.0980611
-0.0979016
-0.0977259
-0.0975344
-0.0973265
-0.097101
-0.0968554
-0.0965878
-0.0963003
-0.0959905
-0.0956563
-0.0952964
-0.0949087
-0.0944887
-0.0940249
-0.0934981
-0.0929001
-0.0921944
-0.0913256
-0.0902218
-0.0888031
-0.0869775
-0.0846503
-0.0817243
-0.0781212
-0.0737831
-0.0686829
-0.0628241
-0.0562514
-0.0490427
-0.0413102
-0.0331916
-0.0248459
-0.0164444
-0.00816267
-0.000169969
0.00738083
0.0143537
0.0206391
0.0261503
0.0308341
0.0346613
0.0376366
0.0397803
0.0411411
0.0417719
0.0417471
0.0411336
0.0400143
0.0384554
0.0365363
0.0343124
0.0318525
0.0291965
0.0263996
0.023485
0.0204949
0.0174364
0.014341
0.011202
0.00804408
0.00485065
0.00164682
-0.096455
-0.0971023
-0.0973052
-0.0975619
-0.0977776
-0.0979409
-0.0980633
-0.0981643
-0.0982573
-0.0983456
-0.0984297
-0.0985084
-0.0985804
-0.0986445
-0.0986994
-0.098744
-0.0987772
-0.0987976
-0.0988038
-0.0987944
-0.0987687
-0.0987259
-0.0986658
-0.0985881
-0.0984927
-0.0983792
-0.0982485
-0.0981022
-0.0979406
-0.0977636
-0.0975713
-0.0973633
-0.0971384
-0.0968939
-0.0966246
-0.0963274
-0.0960048
-0.0956551
-0.0952745
-0.0948581
-0.0943986
-0.093885
-0.0933004
-0.0926226
-0.0918145
-0.0908213
-0.0895732
-0.0879932
-0.0859965
-0.0834997
-0.0804231
-0.0767038
-0.0722989
-0.0671955
-0.06141
-0.0549962
-0.0480393
-0.0406557
-0.0329815
-0.0251715
-0.0173854
-0.00978299
-0.00251189
0.00429556
0.0105278
0.0160948
0.020933
0.0250052
0.0283001
0.0308308
0.032629
0.0337436
0.0342319
0.0341611
0.0335978
0.032613
0.0312703
0.0296348
0.0277597
0.0256988
0.0234918
0.0211792
0.0187868
0.0163431
0.0138613
0.0113596
0.00884124
0.0063184
0.00378843
0.00126447
-0.101169
-0.0997892
-0.099161
-0.0987277
-0.0985013
-0.0984121
-0.0984003
-0.0984248
-0.0984636
-0.0985093
-0.0985587
-0.0986085
-0.0986565
-0.0987012
-0.0987404
-0.0987722
-0.0987953
-0.0988066
-0.098804
-0.098787
-0.0987551
-0.0987079
-0.0986453
-0.0985662
-0.0984699
-0.0983552
-0.0982203
-0.0980663
-0.0978953
-0.0977074
-0.0975011
-0.0972748
-0.0970262
-0.0967522
-0.0964494
-0.0961148
-0.0957462
-0.0953399
-0.0948903
-0.09439
-0.0938287
-0.0931927
-0.0924612
-0.091607
-0.0905919
-0.0893656
-0.0878658
-0.0860237
-0.0837676
-0.0810297
-0.0777507
-0.0738882
-0.0694185
-0.0643451
-0.058698
-0.0525396
-0.0459578
-0.039067
-0.0319969
-0.0248907
-0.0178902
-0.0111353
-0.00474841
0.00116567
0.00652495
0.0112644
0.0153453
0.0187483
0.0214782
0.0235549
0.0250163
0.0259082
0.0262872
0.0262102
0.0257398
0.0249334
0.0238499
0.0225394
0.0210515
0.0194251
0.0176983
0.0158981
0.0140517
0.0121752
0.0102864
0.00839248
0.00650449
0.00462324
0.00275557
0.000899875
-0.0953254
-0.096414
-0.097252
-0.0978642
-0.0981811
-0.0982997
-0.0983341
-0.0983474
-0.0983632
-0.0983933
-0.0984326
-0.0984735
-0.0985142
-0.0985534
-0.098589
-0.0986192
-0.098643
-0.09866
-0.098665
-0.0986528
-0.0986219
-0.0985721
-0.0985032
-0.0984158
-0.0983082
-0.098178
-0.0980234
-0.0978441
-0.0976404
-0.0974114
-0.0971555
-0.0968701
-0.0965522
-0.096198
-0.0958029
-0.0953624
-0.0948713
-0.0943241
-0.0937138
-0.0930308
-0.0922625
-0.0913927
-0.0904003
-0.0892584
-0.0879324
-0.0863793
-0.0845488
-0.0823869
-0.0798393
-0.0768569
-0.0733984
-0.0694385
-0.0649727
-0.0600216
-0.0546283
-0.0488609
-0.0428064
-0.0365711
-0.0302701
-0.0240252
-0.017952
-0.0121614
-0.00674644
-0.0017879
0.00265962
0.00655578
0.00988456
0.0126404
0.0148392
0.0165026
0.0176701
0.0183805
0.0186859
0.018632
0.0182752
0.0176603
0.0168412
0.0158546
0.0147464
0.013542
0.0122781
0.0109687
0.00964272
0.00830406
0.00697582
0.00565325
0.00435622
0.00307343
0.00182304
0.00058693
-0.118009
-0.103085
-0.101158
-0.099682
-0.0987671
-0.0983385
-0.098164
-0.0981017
-0.0980823
-0.0980854
-0.0981236
-0.0981854
-0.0982503
-0.0983107
-0.0983652
-0.0984121
-0.0984487
-0.0984715
-0.0984752
-0.0984547
-0.0984073
-0.0983326
-0.0982314
-0.0981035
-0.0979465
-0.0977571
-0.0975324
-0.0972705
-0.0969698
-0.0966287
-0.0962451
-0.0958168
-0.0953404
-0.0948118
-0.0942265
-0.0935791
-0.0928643
-0.0920757
-0.0912059
-0.0902453
-0.0891819
-0.0879996
-0.0866776
-0.0851899
-0.0835071
-0.0815965
-0.0794222
-0.0769476
-0.0741379
-0.0709647
-0.0674089
-0.0634654
-0.0591455
-0.0544793
-0.0495131
-0.0443104
-0.0389474
-0.0335132
-0.0281012
-0.022808
-0.0177221
-0.0129255
-0.00848456
-0.00445667
-0.000875495
0.00223765
0.00488101
0.00705668
0.00878476
0.0100861
0.0109986
0.0115547
0.0118015
0.0117748
0.0115255
0.0110878
0.0105106
0.00982018
0.00905864
0.00824
0.0073993
0.00653844
0.00568764
0.00483806
0.00401847
0.00321066
0.00244506
0.00169471
0.000993221
0.000301037
-0.0855579
-0.0920177
-0.0945256
-0.0953678
-0.0958142
-0.0962148
-0.0965852
-0.0968963
-0.0971653
-0.0973995
-0.0976009
-0.0977719
-0.0979154
-0.0980352
-0.0981337
-0.0982103
-0.0982618
-0.0982836
-0.0982705
-0.0982181
-0.0981233
-0.0979846
-0.0978014
-0.0975729
-0.0972978
-0.0969739
-0.0965991
-0.0961717
-0.0956905
-0.0951539
-0.0945594
-0.0939033
-0.093182
-0.0923921
-0.0915298
-0.090591
-0.0895708
-0.0884635
-0.0872625
-0.0859596
-0.0845447
-0.0830051
-0.0813253
-0.0794876
-0.0774725
-0.0752588
-0.072825
-0.0701502
-0.0672167
-0.0640124
-0.060533
-0.0567845
-0.0527843
-0.0485624
-0.0441602
-0.0396295
-0.0350313
-0.0304358
-0.0259158
-0.0215456
-0.0173932
-0.0135198
-0.00997216
-0.00678519
-0.00397626
-0.00155451
0.000485215
0.00214994
0.00346074
0.00443874
0.00511998
0.0055342
0.00572401
0.0057196
0.00556519
0.00528713
0.00492786
0.00450515
0.00405655
0.00358732
0.00312935
0.00267404
0.00225081
0.00183848
0.00147005
0.00111311
0.000809255
0.000511759
0.000273068
2.70738e-05
-0.0796136
-0.087391
-0.0913737
-0.0927989
-0.0932335
-0.0935703
-0.0940674
-0.094682
-0.0953005
-0.095848
-0.096302
-0.0966711
-0.0969732
-0.0972229
-0.0974272
-0.0975862
-0.0976956
-0.0977493
-0.0977412
-0.0976663
-0.0975213
-0.0973042
-0.0970146
-0.0966526
-0.0962187
-0.095713
-0.0951358
-0.0944871
-0.0937669
-0.0929751
-0.0921107
-0.0911724
-0.0901584
-0.0890672
-0.0878963
-0.0866434
-0.0853051
-0.0838776
-0.0823563
-0.0807359
-0.0790098
-0.0771702
-0.0752083
-0.0731141
-0.0708764
-0.0684837
-0.0659238
-0.0631863
-0.0602638
-0.0571534
-0.0538579
-0.0503876
-0.0467611
-0.0430065
-0.0391609
-0.0352704
-0.0313858
-0.0275607
-0.0238491
-0.0203051
-0.0169785
-0.013912
-0.0111372
-0.00867592
-0.00653784
-0.00472338
-0.00321919
-0.00200913
-0.00106989
-0.000378508
9.78673e-05
0.00038908
0.00053433
0.000562752
0.000510849
0.000398253
0.000255494
9.29487e-05
-6.13926e-05
-0.000207332
-0.000320389
-0.000414629
-0.000466313
-0.000503784
-0.000495572
-0.000483179
-0.000418296
-0.000364089
-0.000249625
-0.000170735
-0.0694064
-0.0765979
-0.0819415
-0.085429
-0.0875704
-0.0890241
-0.0902384
-0.0913923
-0.0924981
-0.0935102
-0.0943912
-0.095131
-0.0957401
-0.0962356
-0.0966307
-0.096932
-0.0971398
-0.097251
-0.0972619
-0.0971691
-0.096971
-0.0966674
-0.0962596
-0.09575
-0.0951417
-0.0944379
-0.0936417
-0.0927558
-0.0917831
-0.0907255
-0.0895848
-0.088362
-0.0870576
-0.0856714
-0.0842028
-0.0826506
-0.0810134
-0.0792893
-0.0774759
-0.0755708
-0.0735709
-0.0714731
-0.0692738
-0.0669695
-0.0645566
-0.0620315
-0.0593915
-0.0566349
-0.0537613
-0.0507731
-0.0476764
-0.0444821
-0.0412073
-0.0378771
-0.0345253
-0.0311933
-0.0279269
-0.0247718
-0.0217703
-0.0189577
-0.0163612
-0.0140014
-0.0118949
-0.0100569
-0.00849629
-0.00720817
-0.00616805
-0.0053432
-0.00470194
-0.00422006
-0.00387325
-0.00363651
-0.003476
-0.00336223
-0.00326749
-0.00318008
-0.00308752
-0.00298911
-0.00287267
-0.00274059
-0.00257922
-0.00239945
-0.00218604
-0.00196039
-0.00169843
-0.00143671
-0.00113386
-0.000852723
-0.000518303
-0.000245069
-0.0641831
-0.0708057
-0.076279
-0.0804979
-0.0835861
-0.085854
-0.0876428
-0.0891912
-0.0906072
-0.0919083
-0.0930744
-0.0940851
-0.094934
-0.0956266
-0.0961732
-0.0965816
-0.0968557
-0.0969952
-0.0969983
-0.0968634
-0.0965904
-0.0961808
-0.095638
-0.0949666
-0.0941724
-0.0932611
-0.0922387
-0.0911108
-0.0898827
-0.0885594
-0.0871449
-0.0856424
-0.084054
-0.0823813
-0.080625
-0.0787853
-0.0768625
-0.0748566
-0.0727677
-0.0705962
-0.0683428
-0.0660085
-0.063595
-0.0611044
-0.0585398
-0.0559051
-0.0532052
-0.0504454
-0.0476317
-0.0447707
-0.0418703
-0.0389406
-0.0359952
-0.0330538
-0.0301449
-0.0273063
-0.0245839
-0.022024
-0.019663
-0.0175188
-0.0155886
-0.0138589
-0.0123229
-0.0109924
-0.0098852
-0.00899989
-0.00830381
-0.00774255
-0.0072677
-0.00685777
-0.00650903
-0.00621717
-0.00596385
-0.00572411
-0.00547427
-0.00520313
-0.00490706
-0.00459335
-0.00426671
-0.00393546
-0.00359715
-0.00325636
-0.00290457
-0.00254945
-0.00217775
-0.0018069
-0.00141292
-0.00103454
-0.000618898
-0.000258606
-0.0596744
-0.0659488
-0.0714139
-0.0759739
-0.0796357
-0.0825324
-0.0848743
-0.0868612
-0.0886259
-0.0902269
-0.0916718
-0.0929471
-0.0940393
-0.0949433
-0.0956612
-0.0961979
-0.096557
-0.0967403
-0.0967479
-0.0965802
-0.0962393
-0.0957295
-0.0950568
-0.0942288
-0.0932537
-0.09214
-0.0908962
-0.0895311
-0.0880529
-0.0864697
-0.0847881
-0.0830135
-0.0811501
-0.0792008
-0.0771678
-0.075053
-0.0728581
-0.0705852
-0.068237
-0.065817
-0.0633297
-0.0607805
-0.0581759
-0.0555233
-0.0528317
-0.0501119
-0.0473756
-0.0446358
-0.0419051
-0.0391944
-0.036513
-0.0338688
-0.0312702
-0.0287278
-0.0262576
-0.0238864
-0.0216581
-0.0196245
-0.0178259
-0.0162682
-0.0149115
-0.0136979
-0.0125929
-0.0116069
-0.0107713
-0.0101
-0.00956989
-0.00911794
-0.00867817
-0.00822419
-0.00776872
-0.00733396
-0.00693018
-0.00655286
-0.0061908
-0.00583279
-0.00546811
-0.0050928
-0.00470682
-0.00431492
-0.00391865
-0.00352138
-0.0031206
-0.0027193
-0.00231198
-0.00190455
-0.00148713
-0.00107609
-0.000645968
-0.000252718
-0.056102
-0.0621748
-0.0676224
-0.0723671
-0.0763855
-0.0797314
-0.0825265
-0.0849163
-0.0870214
-0.0889138
-0.0906194
-0.0921357
-0.09345
-0.0945506
-0.0954321
-0.0960933
-0.0965352
-0.0967587
-0.0967649
-0.0965557
-0.0961356
-0.0955127
-0.0946976
-0.0937019
-0.092537
-0.0912142
-0.0897448
-0.0881401
-0.0864115
-0.0845695
-0.0826235
-0.0805814
-0.0784496
-0.076233
-0.0739355
-0.0715605
-0.0691117
-0.0665932
-0.0640104
-0.0613704
-0.0586818
-0.0559551
-0.0532021
-0.0504352
-0.0476679
-0.0449151
-0.0421955
-0.0395297
-0.0369367
-0.0344294
-0.0320147
-0.0296954
-0.0274731
-0.0253478
-0.0233186
-0.0213887
-0.0195884
-0.0179685
-0.0165784
-0.0154288
-0.0144573
-0.0135806
-0.0127477
-0.0119579
-0.0112294
-0.0105728
-0.0100094
-0.00952127
-0.00906388
-0.00861453
-0.00818145
-0.00775331
-0.00732244
-0.00688732
-0.00644847
-0.00600852
-0.00557253
-0.00514564
-0.00472912
-0.004321
-0.00391932
-0.00352206
-0.00312506
-0.00272665
-0.00232335
-0.00191607
-0.00150105
-0.00108368
-0.000658011
-0.000256877
-0.0532344
-0.0592055
-0.064647
-0.0694931
-0.0737234
-0.0773704
-0.080511
-0.0832441
-0.0856629
-0.0878339
-0.0897897
-0.0915357
-0.0930615
-0.0943522
-0.0953954
-0.0961835
-0.0967122
-0.09698
-0.0969871
-0.0967361
-0.0962337
-0.0954917
-0.094527
-0.0933575
-0.0919992
-0.0904668
-0.0887747
-0.0869372
-0.0849686
-0.0828822
-0.0806904
-0.0784036
-0.0760305
-0.0735783
-0.0710528
-0.0684595
-0.0658039
-0.0630927
-0.0603338
-0.0575377
-0.0547172
-0.0518884
-0.0490691
-0.0462776
-0.0435299
-0.0408388
-0.038226
-0.0357165
-0.0333299
-0.0310741
-0.0289467
-0.0269397
-0.0250486
-0.0232689
-0.0215992
-0.0200414
-0.0185935
-0.0172834
-0.0161339
-0.0151352
-0.014263
-0.0134855
-0.0127769
-0.0121348
-0.011567
-0.0110436
-0.0105026
-0.0099181
-0.00930801
-0.00871962
-0.00817276
-0.00767458
-0.00722337
-0.00680149
-0.00639112
-0.00598243
-0.00557199
-0.00516039
-0.00474934
-0.00434187
-0.00393793
-0.00353632
-0.0031351
-0.0027329
-0.00232756
-0.0019181
-0.00150294
-0.0010848
-0.000667667
-0.000253398
-0.0508791
-0.0568286
-0.0622763
-0.067178
-0.071534
-0.0753823
-0.0787832
-0.0818043
-0.0845094
-0.0869487
-0.0891514
-0.0911251
-0.0928607
-0.0943413
-0.0955491
-0.0964693
-0.0970915
-0.0974103
-0.0974247
-0.0971384
-0.0965601
-0.0957044
-0.0945945
-0.093255
-0.0917092
-0.0899785
-0.088083
-0.0860419
-0.0838727
-0.0815914
-0.0792124
-0.0767475
-0.0742068
-0.0715985
-0.0689298
-0.0662074
-0.0634381
-0.0606301
-0.0577928
-0.0549384
-0.052082
-0.0492427
-0.0464422
-0.0437045
-0.0410492
-0.0384921
-0.0360555
-0.0337566
-0.0316009
-0.0295815
-0.0276838
-0.0258864
-0.0241735
-0.02255
-0.0210437
-0.0196901
-0.0185197
-0.0175304
-0.0166793
-0.0158459
-0.0149577
-0.014014
-0.0130719
-0.012224
-0.0114936
-0.0108725
-0.0103218
-0.00979342
-0.00926727
-0.00874596
-0.00824003
-0.00776269
-0.00730991
-0.00687204
-0.00644178
-0.00601572
-0.00559354
-0.00517616
-0.0047631
-0.00435383
-0.00394778
-0.00354382
-0.00314039
-0.0027361
-0.00232954
-0.00191944
-0.00150483
-0.00108891
-0.000677112
-0.000250952
-0.0493764
-0.0552941
-0.0607105
-0.0656171
-0.0700384
-0.0740155
-0.0775982
-0.0808356
-0.0837698
-0.0864355
-0.0888525
-0.091025
-0.0929436
-0.09459
-0.0959423
-0.0969799
-0.0976862
-0.0980512
-0.098072
-0.0977539
-0.09711
-0.0961596
-0.0949247
-0.093433
-0.0917167
-0.0898084
-0.0877381
-0.0855323
-0.0832136
-0.0808008
-0.0783091
-0.0757505
-0.0731343
-0.070468
-0.067758
-0.0650099
-0.06223
-0.059425
-0.0566039
-0.0537776
-0.0509607
-0.0481714
-0.0454323
-0.042771
-0.0402184
-0.037809
-0.0355661
-0.0334986
-0.0315967
-0.0298311
-0.028159
-0.0265374
-0.0249201
-0.0232959
-0.02169
-0.0201584
-0.0187656
-0.0175578
-0.0165107
-0.0155824
-0.0147123
-0.0138774
-0.0130765
-0.0123286
-0.0116529
-0.0110421
-0.0104652
-0.00990044
-0.00934333
-0.00880206
-0.00828557
-0.00779673
-0.00733289
-0.00688792
-0.00645505
-0.0060294
-0.00560843
-0.00519137
-0.00477804
-0.00436811
-0.00396084
-0.00355517
-0.00314989
-0.00274389
-0.00233613
-0.00192556
-0.00151166
-0.00109708
-0.000684716
-0.000251263
-0.0484784
-0.0544155
-0.0598343
-0.0647613
-0.0692363
-0.0733025
-0.0770041
-0.0803849
-0.0834821
-0.086318
-0.0889009
-0.0912266
-0.0932813
-0.0950453
-0.096496
-0.0976122
-0.098377
-0.0987803
-0.09882
-0.0985031
-0.0978452
-0.0968696
-0.0956052
-0.0940838
-0.0923389
-0.0904029
-0.0883068
-0.0860781
-0.0837405
-0.0813137
-0.0788134
-0.0762519
-0.0736389
-0.0709816
-0.0682862
-0.065558
-0.0628024
-0.0600254
-0.0572344
-0.0544389
-0.0516511
-0.0488864
-0.0461639
-0.0435063
-0.0409387
-0.0384851
-0.0361653
-0.0339898
-0.0319573
-0.0300558
-0.0282695
-0.0265456
-0.024868
-0.0232361
-0.0216726
-0.0202197
-0.0189144
-0.0177699
-0.0167608
-0.0158258
-0.0149198
-0.0140333
-0.0131843
-0.0124021
-0.0116994
-0.0110643
-0.0104726
-0.009904
-0.00935205
-0.00881933
-0.00831048
-0.00782645
-0.00736368
-0.00691666
-0.00648047
-0.00605193
-0.00562933
-0.00521178
-0.00479856
-0.00438888
-0.00398178
-0.00357608
-0.00317057
-0.00276421
-0.00235616
-0.00194581
-0.00153275
-0.00111738
-0.000698864
-0.000257672
)
;

boundaryField
{
    fixedWalls
    {
        type            zeroGradient;
    }
    inflowWall
    {
        type            zeroGradient;
    }
    outflowWall
    {
        type            fixedValue;
        value           uniform 0;
    }
    frontAndBack
    {
        type            empty;
    }
}


// ************************************************************************* //
