/*--------------------------------*- C++ -*----------------------------------*\
| =========                 |                                                 |
| \\      /  F ield         | OpenFOAM: The Open Source CFD Toolbox           |
|  \\    /   O peration     | Version:  2306                                  |
|   \\  /    A nd           | Website:  www.openfoam.com                      |
|    \\/     M anipulation  |                                                 |
\*---------------------------------------------------------------------------*/
FoamFile
{
    version     2.0;
    format      ascii;
    arch        "LSB;label=32;scalar=64";
    class       volScalarField;
    location    "4.01";
    object      p;
}
// * * * * * * * * * * * * * * * * * * * * * * * * * * * * * * * * * * * * * //

dimensions      [0 2 -2 0 0 0 0];

internalField   nonuniform List<scalar> 
1900
(
0.057006
0.0327825
0.0123883
-0.00295592
-0.0139806
-0.0245436
-0.034995
-0.0471738
-0.0597467
-0.0738262
0.0277453
0.0195462
0.0082283
-0.00332743
-0.0143566
-0.0245506
-0.0349922
-0.045516
-0.0570253
-0.0680898
0.0186541
0.014163
0.00664617
-0.00272386
-0.01281
-0.0227918
-0.0325741
-0.04213
-0.0515607
-0.0606516
0.0129548
0.00988121
0.00423081
-0.00341842
-0.0122712
-0.0215128
-0.0307056
-0.0396214
-0.0482165
-0.0563773
0.0107328
0.0081974
0.0034587
-0.00318936
-0.011168
-0.0197712
-0.0284455
-0.036868
-0.0448884
-0.0524173
0.0113692
0.00888861
0.00427834
-0.00218602
-0.00992348
-0.0182256
-0.0265332
-0.034529
-0.0420885
-0.0491826
0.0148267
0.0118811
0.00660093
-0.000480737
-0.00853885
-0.0168228
-0.0248666
-0.0324929
-0.0396932
-0.0465021
0.0215275
0.0172326
0.0103362
0.00186946
-0.00694745
-0.0153677
-0.0231954
-0.030524
-0.0375028
-0.0441936
0.0316698
0.0235714
0.0131372
0.00267903
-0.00662396
-0.0147303
-0.0220921
-0.0291319
-0.0360131
-0.042695
0.0605206
0.0378492
0.0181444
0.00408496
-0.00556787
-0.013257
-0.0204782
-0.0276865
-0.0348314
-0.0417075
-0.0970599
-0.0970934
-0.0971382
-0.0971922
-0.0972525
-0.0973186
-0.0973902
-0.097466
-0.0975449
-0.0976253
-0.0977055
-0.097784
-0.0978591
-0.0979291
-0.0979924
-0.0980475
-0.098093
-0.0981275
-0.0981498
-0.0981589
-0.0981539
-0.098134
-0.0980987
-0.0980476
-0.0979802
-0.0978965
-0.0977963
-0.0976795
-0.0975462
-0.0973964
-0.0972304
-0.0970485
-0.0968512
-0.096639
-0.0964123
-0.096171
-0.0959132
-0.0956345
-0.0953267
-0.0949756
-0.0945604
-0.0940531
-0.0934191
-0.0926187
-0.0916083
-0.090341
-0.0887648
-0.0868196
-0.0844352
-0.0815337
-0.0780322
-0.0738476
-0.0689115
-0.0631859
-0.0566636
-0.0493862
-0.0414256
-0.0328844
-0.0238991
-0.0146364
-0.00528123
0.00397726
0.0129507
0.0214605
0.0293457
0.0364722
0.0427311
0.0480533
0.0523938
0.0557448
0.0581161
0.0595512
0.0601005
0.0598419
0.0588465
0.0572062
0.0549972
0.0523121
0.0492177
0.0457966
0.0420974
0.0381889
0.0340973
0.0298782
0.025532
0.0211072
0.0165725
0.0119843
0.00726265
0.00250673
-0.0970555
-0.0970871
-0.0971141
-0.0971557
-0.0972069
-0.0972664
-0.0973328
-0.0974041
-0.0974791
-0.0975561
-0.0976335
-0.0977096
-0.0977827
-0.0978511
-0.0979131
-0.0979672
-0.0980119
-0.0980457
-0.0980675
-0.0980761
-0.0980705
-0.0980499
-0.0980137
-0.0979613
-0.0978922
-0.0978063
-0.0977033
-0.097583
-0.0974453
-0.0972901
-0.0971173
-0.0969269
-0.0967186
-0.0964923
-0.0962475
-0.0959833
-0.0956977
-0.0953869
-0.095044
-0.0946585
-0.0942151
-0.0936932
-0.0930665
-0.0923026
-0.0913628
-0.0902009
-0.088762
-0.0869786
-0.084767
-0.0820314
-0.0786714
-0.0745959
-0.0697498
-0.0641297
-0.0577169
-0.0505217
-0.042607
-0.0340856
-0.0250995
-0.0158187
-0.00643327
0.00286404
0.0118765
0.0204235
0.0283442
0.0355042
0.0417835
0.0471264
0.0514845
0.0548525
0.0572377
0.0586876
0.0592502
0.0590081
0.0580314
0.056418
0.0542374
0.0515883
0.0485288
0.0451511
0.0414923
0.0376342
0.0335872
0.0294246
0.0251274
0.0207647
0.016284
0.0117568
0.00710246
0.00243084
-0.0969378
-0.0970191
-0.0970646
-0.0971182
-0.0971744
-0.097236
-0.0973039
-0.0973771
-0.0974543
-0.0975339
-0.0976142
-0.0976934
-0.0977698
-0.0978415
-0.0979068
-0.0979641
-0.0980119
-0.0980485
-0.0980727
-0.0980832
-0.098079
-0.0980593
-0.0980235
-0.0979709
-0.0979013
-0.0978144
-0.0977102
-0.0975886
-0.0974497
-0.0972937
-0.0971204
-0.0969296
-0.0967207
-0.0964932
-0.096246
-0.0959777
-0.0956859
-0.095367
-0.095016
-0.0946262
-0.0941889
-0.0936915
-0.0931166
-0.0924398
-0.0916247
-0.09062
-0.0893598
-0.0877645
-0.0857349
-0.0831659
-0.0799684
-0.0760471
-0.0713155
-0.0657241
-0.0592914
-0.0520625
-0.0441141
-0.0355622
-0.0265453
-0.0172309
-0.0078436
0.0014443
0.0104413
0.0189721
0.0268683
0.034001
0.0402542
0.0455679
0.049895
0.0532352
0.055596
0.05703
0.0575847
0.0573476
0.0563851
0.0547997
0.0526573
0.0500613
0.0470651
0.0437648
0.040193
0.0364347
0.032497
0.0284543
0.0242871
0.0200622
0.015733
0.0113653
0.00689138
0.00238807
-0.0970202
-0.0970938
-0.097098
-0.0971238
-0.0971694
-0.0972316
-0.0973049
-0.0973856
-0.097471
-0.0975591
-0.0976477
-0.0977349
-0.0978185
-0.0978968
-0.0979679
-0.0980302
-0.0980819
-0.0981217
-0.0981481
-0.0981599
-0.0981563
-0.0981362
-0.0980992
-0.0980448
-0.0979726
-0.0978825
-0.0977746
-0.0976492
-0.0975064
-0.0973464
-0.0971693
-0.0969747
-0.0967618
-0.0965293
-0.0962759
-0.0960004
-0.0957015
-0.0953778
-0.0950273
-0.0946462
-0.0942287
-0.093767
-0.0932504
-0.0926572
-0.0919491
-0.0910658
-0.0899286
-0.0884666
-0.086567
-0.0841095
-0.0809815
-0.0771074
-0.0724108
-0.0668639
-0.0604713
-0.0532814
-0.0453768
-0.0368799
-0.0279372
-0.0187257
-0.00944824
-0.000292475
0.0085518
0.0169141
0.0246319
0.0315833
0.0376616
0.0428093
0.0469846
0.0501923
0.0524449
0.0537986
0.0543038
0.0540491
0.0531016
0.0515626
0.0494984
0.0470092
0.0441484
0.041007
0.0376186
0.0340615
0.0303463
0.0265392
0.0226279
0.0186687
0.0146277
0.0105558
0.00639857
0.00220665
-0.0966934
-0.0968988
-0.0969896
-0.0970937
-0.0971924
-0.0972857
-0.0973783
-0.0974735
-0.097571
-0.0976693
-0.0977666
-0.0978609
-0.0979504
-0.0980333
-0.0981078
-0.0981722
-0.0982251
-0.0982648
-0.0982901
-0.0982996
-0.0982926
-0.0982683
-0.0982262
-0.0981662
-0.0980881
-0.0979919
-0.0978779
-0.0977468
-0.0975991
-0.097435
-0.0972548
-0.097058
-0.0968433
-0.0966089
-0.0963531
-0.0960754
-0.0957752
-0.0954522
-0.0951059
-0.0947347
-0.0943337
-0.0938953
-0.0934144
-0.092867
-0.092213
-0.0913825
-0.0902936
-0.088845
-0.0869498
-0.0844953
-0.0813731
-0.0775022
-0.0728193
-0.0673021
-0.0609623
-0.0538553
-0.0460701
-0.0377327
-0.0289955
-0.0200332
-0.0110379
-0.00219785
0.0063041
0.0143056
0.0216576
0.0282467
0.03398
0.0388069
0.0426967
0.0456597
0.0477173
0.0489275
0.0493459
0.0490587
0.0481354
0.0466712
0.0447336
0.0424141
0.0397674
0.0368738
0.0337697
0.0305215
0.0271457
0.0236954
0.0201677
0.016605
0.012987
0.00934881
0.00565513
0.00194158
-0.0975257
-0.0975481
-0.0974467
-0.0974016
-0.0974121
-0.09747
-0.0975579
-0.0976589
-0.097762
-0.0978638
-0.0979625
-0.0980563
-0.0981435
-0.0982226
-0.0982921
-0.0983506
-0.098397
-0.0984296
-0.0984473
-0.0984489
-0.0984335
-0.0984009
-0.0983507
-0.098283
-0.0981976
-0.0980946
-0.0979745
-0.0978382
-0.0976864
-0.0975193
-0.097337
-0.097139
-0.0969236
-0.0966883
-0.0964321
-0.0961568
-0.0958607
-0.0955427
-0.0952025
-0.0948385
-0.0944457
-0.0940115
-0.0935163
-0.0929431
-0.0922474
-0.0913642
-0.0902108
-0.0886963
-0.0867223
-0.0841881
-0.0809966
-0.0770753
-0.0723753
-0.0668839
-0.0606221
-0.0536523
-0.0460708
-0.0380073
-0.0296154
-0.0210668
-0.0125419
-0.00421881
0.00373464
0.0111695
0.017956
0.023994
0.0292089
0.0335616
0.0370366
0.039651
0.0414372
0.0424538
0.0427623
0.0424429
0.041567
0.0402199
0.0384688
0.0363925
0.0340457
0.0314947
0.0287778
0.0259471
0.0230236
0.0200461
0.0170199
0.0139733
0.0108978
0.00781524
0.00470761
0.00159681
-0.0961971
-0.0968447
-0.0970475
-0.0973043
-0.0975199
-0.0976832
-0.0978056
-0.0979067
-0.0979995
-0.0980878
-0.0981719
-0.0982505
-0.0983226
-0.0983868
-0.098442
-0.0984869
-0.0985206
-0.0985418
-0.0985488
-0.0985406
-0.0985162
-0.0984754
-0.0984177
-0.0983432
-0.0982516
-0.0981426
-0.0980178
-0.0978784
-0.0977245
-0.0975561
-0.0973733
-0.0971752
-0.0969606
-0.0967261
-0.096467
-0.0961814
-0.0958719
-0.0955373
-0.0951743
-0.0947787
-0.0943424
-0.0938532
-0.0932908
-0.092627
-0.0918158
-0.0907943
-0.089484
-0.0877984
-0.0856471
-0.082944
-0.0796105
-0.0755894
-0.0708477
-0.0653856
-0.0592364
-0.0524715
-0.0451928
-0.0375322
-0.0296395
-0.0216794
-0.0138176
-0.00621467
0.00098502
0.00765457
0.0136893
0.019009
0.0235615
0.0273226
0.0302935
0.0324987
0.0339795
0.0347934
0.0350037
0.0346823
0.0338987
0.0327252
0.0312256
0.0294641
0.0274925
0.0253625
0.0231115
0.0207776
0.0183842
0.0159571
0.0135072
0.0110504
0.00858796
0.00612986
0.00367186
0.00122496
-0.100912
-0.0995322
-0.0989039
-0.0984706
-0.0982442
-0.098155
-0.0981431
-0.0981675
-0.0982062
-0.0982517
-0.098301
-0.0983506
-0.0983987
-0.0984433
-0.0984827
-0.0985149
-0.0985385
-0.0985503
-0.0985485
-0.0985326
-0.0985023
-0.0984572
-0.0983972
-0.0983212
-0.0982286
-0.0981184
-0.0979886
-0.0978409
-0.0976773
-0.0974973
-0.0972995
-0.0970819
-0.096842
-0.0965768
-0.0962828
-0.0959577
-0.0955993
-0.0952044
-0.0947675
-0.0942812
-0.0937344
-0.0931111
-0.0923873
-0.0915305
-0.0904952
-0.0892239
-0.087647
-0.0856895
-0.0832754
-0.0803363
-0.0768163
-0.0726786
-0.0679089
-0.0625232
-0.0565666
-0.0501169
-0.0432766
-0.0361734
-0.028948
-0.0217502
-0.0147254
-0.00801232
-0.00172739
0.00403167
0.00918999
0.013692
0.0175093
0.0206333
0.023079
0.0248755
0.0260681
0.0267088
0.0268582
0.0265769
0.0259289
0.0249727
0.0237664
0.0223594
0.0207992
0.019123
0.0173665
0.0155549
0.0137128
0.0118545
0.00999532
0.00814086
0.00630009
0.00447258
0.00266329
0.000869698
-0.0950671
-0.0961568
-0.0969951
-0.0976074
-0.0979243
-0.0980427
-0.098077
-0.09809
-0.0981057
-0.0981357
-0.0981749
-0.0982157
-0.0982565
-0.0982957
-0.0983315
-0.0983621
-0.0983864
-0.0984042
-0.0984098
-0.0983982
-0.0983683
-0.0983199
-0.0982532
-0.0981686
-0.0980641
-0.0979371
-0.0977863
-0.0976116
-0.0974131
-0.0971897
-0.0969394
-0.0966596
-0.0963469
-0.0959974
-0.0956066
-0.0951698
-0.0946825
-0.094139
-0.0935322
-0.0928519
-0.0920845
-0.0912116
-0.0902094
-0.0890466
-0.087683
-0.08607
-0.0841524
-0.0818721
-0.0791726
-0.0760048
-0.0723302
-0.0681312
-0.0634131
-0.0582077
-0.0525705
-0.0465821
-0.0403413
-0.0339642
-0.0275727
-0.0212923
-0.0152391
-0.00952121
-0.00422721
0.000570352
0.00482497
0.00850494
0.0116021
0.0141192
0.0160793
0.0175111
0.018459
0.0189662
0.0190876
0.0188716
0.0183757
0.0176454
0.0167335
0.0156761
0.0145163
0.0132783
0.0119962
0.0106829
0.00936462
0.00804421
0.00674223
0.00545332
0.00419497
0.00295563
0.0017513
0.000564086
-0.117757
-0.102829
-0.100902
-0.0994253
-0.0985103
-0.0980818
-0.0979071
-0.0978446
-0.0978246
-0.0978272
-0.0978649
-0.0979264
-0.0979911
-0.0980514
-0.0981055
-0.098152
-0.0981882
-0.0982106
-0.0982137
-0.0981925
-0.0981448
-0.0980706
-0.0979706
-0.097844
-0.0976879
-0.0974991
-0.0972748
-0.0970134
-0.0967131
-0.0963722
-0.0959885
-0.0955594
-0.0950815
-0.0945504
-0.0939615
-0.0933096
-0.0925894
-0.0917945
-0.0909171
-0.0899472
-0.0888713
-0.0876715
-0.0863237
-0.084799
-0.0830649
-0.0810849
-0.0788203
-0.0762325
-0.0732863
-0.0699548
-0.0662228
-0.0620914
-0.0575801
-0.0527274
-0.047589
-0.0422371
-0.0367566
-0.0312433
-0.0257949
-0.0205094
-0.0154741
-0.0107677
-0.00645256
-0.00257905
0.000827517
0.00375259
0.00619963
0.00817643
0.00970847
0.010822
0.0115584
0.0119535
0.0120558
0.0119037
0.0115484
0.0110251
0.0103814
0.00964263
0.00884811
0.00801062
0.00716219
0.00630394
0.00546339
0.00463153
0.00383464
0.00305494
0.00232025
0.00160445
0.000938425
0.000284152
-0.0852965
-0.0917599
-0.094268
-0.0951093
-0.0955544
-0.0959538
-0.0963229
-0.0966327
-0.0969005
-0.0971337
-0.0973339
-0.0975037
-0.0976459
-0.0977642
-0.097861
-0.0979357
-0.0979851
-0.0980046
-0.0979891
-0.0979341
-0.0978367
-0.0976955
-0.0975098
-0.0972787
-0.0970002
-0.0966723
-0.0962929
-0.0958605
-0.0953737
-0.0948307
-0.0942287
-0.0935637
-0.0928322
-0.0920308
-0.0911557
-0.0902028
-0.0891671
-0.088043
-0.0868235
-0.0854998
-0.0840609
-0.0824926
-0.0807778
-0.0788969
-0.076828
-0.0745485
-0.072035
-0.0692662
-0.0662249
-0.062901
-0.0592932
-0.0554124
-0.0512814
-0.0469364
-0.0424247
-0.0378043
-0.0331426
-0.0285143
-0.0239956
-0.0196615
-0.0155786
-0.0118047
-0.00838063
-0.00533521
-0.00268007
-0.000419573
0.00145505
0.00295489
0.00410543
0.00493243
0.00547479
0.00576455
0.00584519
0.00574823
0.00551791
0.00518108
0.00477883
0.00432823
0.00386392
0.00338975
0.00293414
0.00248772
0.00207698
0.00168135
0.00133162
0.000997126
0.000716591
0.000445651
0.000233138
1.66442e-05
-0.0793384
-0.0871171
-0.0911006
-0.0925261
-0.0929602
-0.093296
-0.0937917
-0.0944044
-0.0950205
-0.0955652
-0.096016
-0.0963818
-0.0966805
-0.0969267
-0.0971272
-0.0972822
-0.0973872
-0.0974361
-0.0974228
-0.0973422
-0.0971911
-0.0969675
-0.0966708
-0.0963011
-0.0958586
-0.0953434
-0.0947557
-0.0940955
-0.0933628
-0.0925573
-0.0916779
-0.0907232
-0.0896915
-0.0885812
-0.0873901
-0.0861158
-0.0847549
-0.0833038
-0.0817576
-0.0801106
-0.0783558
-0.0764848
-0.0744877
-0.0723534
-0.0700695
-0.067623
-0.0650011
-0.0621935
-0.0591934
-0.0559995
-0.0526171
-0.0490597
-0.0453504
-0.041522
-0.0376169
-0.0336854
-0.0297812
-0.02596
-0.0222778
-0.0187893
-0.0155428
-0.012578
-0.00992211
-0.00759237
-0.00559349
-0.00392009
-0.00255494
-0.00147978
-0.000668814
-9.58949e-05
0.000274624
0.000475103
0.000545484
0.00051465
0.000417279
0.000271991
0.000107872
-6.49701e-05
-0.000220712
-0.000360534
-0.000463448
-0.000544514
-0.000583077
-0.000606618
-0.000585314
-0.000557676
-0.000478402
-0.000406334
-0.000275267
-0.000174023
-0.0691221
-0.0763166
-0.0816603
-0.0851457
-0.087284
-0.0887344
-0.0899455
-0.0910958
-0.0921976
-0.0932054
-0.0940815
-0.0948163
-0.0954203
-0.0959102
-0.0962994
-0.0965943
-0.0967952
-0.0968991
-0.0969018
-0.0968002
-0.0965924
-0.0962783
-0.095859
-0.0953369
-0.094715
-0.0939963
-0.0931839
-0.0922807
-0.0912892
-0.0902115
-0.0890495
-0.087804
-0.0864757
-0.0850643
-0.0835695
-0.0819903
-0.0803252
-0.0785725
-0.0767299
-0.0747949
-0.0727644
-0.0706349
-0.0684025
-0.0660634
-0.0636133
-0.0610483
-0.0583655
-0.0555627
-0.05264
-0.0496006
-0.046452
-0.0432075
-0.0398877
-0.0365221
-0.0331493
-0.0298144
-0.0265652
-0.0234479
-0.0205029
-0.0177631
-0.015253
-0.0129918
-0.0109964
-0.00928133
-0.00784985
-0.00668707
-0.00576063
-0.0050369
-0.0044867
-0.00408759
-0.00381362
-0.00363525
-0.00351611
-0.00342839
-0.00334933
-0.00327146
-0.00318455
-0.00308766
-0.00296886
-0.00283059
-0.00266114
-0.00247194
-0.00224968
-0.00201469
-0.00174528
-0.0014754
-0.00116648
-0.000875787
-0.000533719
-0.000244249
-0.0638891
-0.0705106
-0.0759823
-0.0801989
-0.0832839
-0.0855479
-0.0873323
-0.0888759
-0.0902865
-0.0915818
-0.0927416
-0.0937455
-0.0945872
-0.0952722
-0.0958106
-0.0962103
-0.096475
-0.0966043
-0.0965964
-0.0964496
-0.0961635
-0.0957397
-0.0951814
-0.0944932
-0.0936805
-0.0927493
-0.0917053
-0.0905544
-0.0893018
-0.0879525
-0.0865107
-0.0849796
-0.0833615
-0.0816579
-0.0798698
-0.0779978
-0.0760422
-0.0740035
-0.0718819
-0.0696783
-0.0673933
-0.0650283
-0.0625851
-0.060066
-0.0574742
-0.0548137
-0.0520893
-0.049306
-0.0464697
-0.043587
-0.0406662
-0.0377185
-0.0347597
-0.0318134
-0.0289132
-0.0261024
-0.0234305
-0.0209424
-0.0186678
-0.0166144
-0.0147715
-0.0131258
-0.0116805
-0.0104556
-0.00946386
-0.00868766
-0.00807753
-0.00757503
-0.00714406
-0.00677637
-0.00647093
-0.00621645
-0.0059871
-0.00575625
-0.00550443
-0.00522667
-0.00492502
-0.00460946
-0.00428446
-0.00395615
-0.0036206
-0.00328116
-0.00292976
-0.00257382
-0.00220152
-0.001829
-0.00143414
-0.00105141
-0.000632245
-0.000258221
-0.0593715
-0.0656437
-0.0711063
-0.0756632
-0.0793209
-0.0822126
-0.0845486
-0.086529
-0.0882867
-0.0898801
-0.0913168
-0.0925835
-0.0936666
-0.0945609
-0.0952685
-0.095794
-0.0961412
-0.0963116
-0.0963053
-0.0961227
-0.0957656
-0.0952381
-0.0945461
-0.0936971
-0.092699
-0.0915604
-0.0902899
-0.0888962
-0.087388
-0.0857732
-0.0840585
-0.0822496
-0.0803507
-0.0783651
-0.076295
-0.0741428
-0.0719107
-0.0696011
-0.0672175
-0.0647638
-0.0622451
-0.0596674
-0.0570376
-0.0543639
-0.0516559
-0.0489248
-0.0461827
-0.0434426
-0.0407162
-0.0380139
-0.0353437
-0.0327135
-0.0301317
-0.0276104
-0.0251696
-0.0228454
-0.0206898
-0.0187551
-0.0170704
-0.0156173
-0.014339
-0.0131806
-0.0121304
-0.011217
-0.0104708
-0.00989038
-0.00942479
-0.00899778
-0.00855972
-0.00810859
-0.00766861
-0.00725952
-0.00688185
-0.00652467
-0.0061755
-0.00582282
-0.00545858
-0.00508261
-0.00469753
-0.00430826
-0.00391549
-0.00352167
-0.00312428
-0.002726
-0.00232173
-0.00191671
-0.0015016
-0.0010902
-0.000658366
-0.000253671
-0.0557919
-0.0618616
-0.0673053
-0.0720454
-0.0760583
-0.0793978
-0.0821855
-0.0845672
-0.0866636
-0.0885467
-0.0902424
-0.0917483
-0.0930516
-0.0941406
-0.0950096
-0.0956576
-0.0960852
-0.0962933
-0.0962828
-0.0960556
-0.0956162
-0.0949725
-0.0941348
-0.0931143
-0.0919223
-0.09057
-0.0890689
-0.0874306
-0.0856666
-0.0837876
-0.0818032
-0.0797216
-0.0775491
-0.0752912
-0.0729519
-0.0705353
-0.0680455
-0.0654876
-0.0628678
-0.0601941
-0.0574763
-0.0547256
-0.0519546
-0.0491766
-0.0464055
-0.0436575
-0.0409524
-0.0383112
-0.0357509
-0.0332817
-0.0309082
-0.028632
-0.0264535
-0.0243711
-0.0223825
-0.0205028
-0.0187754
-0.0172569
-0.0159907
-0.014948
-0.0140437
-0.0132011
-0.0123939
-0.0116375
-0.0109456
-0.010346
-0.00983912
-0.00938299
-0.00894105
-0.0085134
-0.0080949
-0.0076755
-0.00725052
-0.00681989
-0.00638522
-0.0059517
-0.00552553
-0.00511021
-0.00470426
-0.00430613
-0.003913
-0.00352208
-0.00312959
-0.00273446
-0.00233395
-0.00192882
-0.00151551
-0.00109809
-0.000670266
-0.000258251
-0.0529178
-0.0588845
-0.0643208
-0.0691609
-0.0733842
-0.0770234
-0.0801552
-0.0828787
-0.0852871
-0.0874471
-0.0893913
-0.0911251
-0.0926381
-0.0939155
-0.0949446
-0.0957175
-0.0962299
-0.0964801
-0.0964679
-0.0961961
-0.0956712
-0.0949051
-0.0939147
-0.0927171
-0.091328
-0.0897621
-0.0880341
-0.0861586
-0.0841501
-0.0820223
-0.0797877
-0.0774572
-0.0750397
-0.0725427
-0.0699727
-0.0673355
-0.0646377
-0.0618866
-0.0590917
-0.0562646
-0.0534199
-0.0505752
-0.0477495
-0.0449612
-0.0422252
-0.0395564
-0.0369787
-0.0345168
-0.032186
-0.0299895
-0.0279206
-0.0259711
-0.0241364
-0.0224119
-0.0207994
-0.0192962
-0.017914
-0.016685
-0.0156162
-0.0146917
-0.0138815
-0.013153
-0.0124918
-0.0118974
-0.0113781
-0.0108659
-0.0103098
-0.00970887
-0.00910973
-0.0085461
-0.00803223
-0.00757152
-0.00714934
-0.00674456
-0.00634333
-0.0059403
-0.00553488
-0.00512863
-0.00472513
-0.00432552
-0.00392854
-0.00353269
-0.00313617
-0.00273768
-0.00233517
-0.001928
-0.00151449
-0.00109656
-0.000676898
-0.000254834
-0.0505567
-0.0565007
-0.061942
-0.0668362
-0.0711837
-0.0750227
-0.0784134
-0.0814234
-0.0841165
-0.0865432
-0.0887326
-0.0906925
-0.0924138
-0.0938796
-0.0950718
-0.0959755
-0.09658
-0.0968797
-0.0968733
-0.0965642
-0.095961
-0.0950785
-0.0939399
-0.0925695
-0.09099
-0.0892232
-0.0872893
-0.0852075
-0.082996
-0.0806712
-0.0782475
-0.0757374
-0.0731512
-0.0704976
-0.0677845
-0.065019
-0.0622092
-0.0593638
-0.0564939
-0.0536132
-0.0507389
-0.0478919
-0.0450962
-0.0423762
-0.0397491
-0.037234
-0.0348519
-0.0326164
-0.0305271
-0.0285726
-0.0267319
-0.0249816
-0.0233128
-0.0217432
-0.0203084
-0.0190478
-0.0179844
-0.0170964
-0.0162877
-0.0154441
-0.0145287
-0.0135739
-0.0126667
-0.0118887
-0.0112303
-0.0106641
-0.0101415
-0.00962259
-0.0091052
-0.0085984
-0.00811706
-0.00766391
-0.00722926
-0.00680399
-0.00638301
-0.00596521
-0.00555158
-0.00514262
-0.00473746
-0.00433579
-0.00393657
-0.00353837
-0.0031396
-0.00273902
-0.00233526
-0.00192713
-0.00151356
-0.00109731
-0.000682906
-0.000251727
-0.0490493
-0.0549607
-0.0603696
-0.0652678
-0.0696796
-0.0736461
-0.0772172
-0.0804421
-0.0833633
-0.0860152
-0.0884179
-0.0905754
-0.0924785
-0.0941088
-0.0954444
-0.0964643
-0.0971522
-0.0974974
-0.0974969
-0.0971556
-0.0964864
-0.095508
-0.0942422
-0.0927173
-0.0909658
-0.0890202
-0.0869107
-0.0846641
-0.0823032
-0.0798472
-0.0773115
-0.0747087
-0.0720485
-0.069339
-0.0665868
-0.0637985
-0.060981
-0.0581422
-0.055292
-0.0524433
-0.0496123
-0.0468195
-0.0440905
-0.0414553
-0.0389482
-0.0366022
-0.0344362
-0.0324519
-0.0306292
-0.0289308
-0.0273094
-0.025709
-0.0240978
-0.0224806
-0.020901
-0.0194258
-0.018124
-0.017009
-0.016038
-0.0151592
-0.0143169
-0.0135054
-0.0127387
-0.012035
-0.0114078
-0.0108289
-0.0102687
-0.00971471
-0.0091715
-0.00864966
-0.00815636
-0.0076903
-0.00724614
-0.00681648
-0.00639526
-0.00597906
-0.00556658
-0.00515766
-0.00475217
-0.00434956
-0.00394884
-0.00354879
-0.00314813
-0.00274574
-0.00234058
-0.00193158
-0.00151815
-0.00110276
-0.000688013
-0.000251381
-0.0481486
-0.054079
-0.0594898
-0.0644078
-0.0688726
-0.0729277
-0.0766171
-0.0799848
-0.0830682
-0.0858898
-0.0884579
-0.0907685
-0.0928077
-0.0945558
-0.0959901
-0.0970893
-0.0978363
-0.0982204
-0.0982395
-0.0979001
-0.0972176
-0.0962152
-0.0949216
-0.0933686
-0.0915898
-0.0896179
-0.087484
-0.0852158
-0.0828376
-0.0803691
-0.0778267
-0.0752228
-0.0725677
-0.069869
-0.0671335
-0.064367
-0.0615756
-0.0587662
-0.0559473
-0.0531296
-0.0503271
-0.047557
-0.0448406
-0.0422027
-0.0396694
-0.0372646
-0.0350054
-0.0328972
-0.0309337
-0.0291012
-0.0273621
-0.0256708
-0.0240213
-0.0224217
-0.0209077
-0.0195269
-0.0183079
-0.0172492
-0.0162975
-0.0153911
-0.0145017
-0.0136361
-0.0128241
-0.0120925
-0.0114374
-0.0108385
-0.0102697
-0.00971803
-0.00918367
-0.00867174
-0.00818507
-0.00772177
-0.00727647
-0.00684351
-0.0064189
-0.00600047
-0.00558717
-0.00517834
-0.00477325
-0.00437104
-0.00397054
-0.0035705
-0.00316965
-0.0027669
-0.00236137
-0.00195234
-0.00153928
-0.0011226
-0.000701569
-0.000257562
)
;

boundaryField
{
    fixedWalls
    {
        type            zeroGradient;
    }
    inflowWall
    {
        type            zeroGradient;
    }
    outflowWall
    {
        type            fixedValue;
        value           uniform 0;
    }
    frontAndBack
    {
        type            empty;
    }
}


// ************************************************************************* //
