/*--------------------------------*- C++ -*----------------------------------*\
| =========                 |                                                 |
| \\      /  F ield         | OpenFOAM: The Open Source CFD Toolbox           |
|  \\    /   O peration     | Version:  2306                                  |
|   \\  /    A nd           | Website:  www.openfoam.com                      |
|    \\/     M anipulation  |                                                 |
\*---------------------------------------------------------------------------*/
FoamFile
{
    version     2.0;
    format      ascii;
    arch        "LSB;label=32;scalar=64";
    class       volScalarField;
    location    "4.37";
    object      p;
}
// * * * * * * * * * * * * * * * * * * * * * * * * * * * * * * * * * * * * * //

dimensions      [0 2 -2 0 0 0 0];

internalField   nonuniform List<scalar> 
1900
(
0.0563422
0.0321202
0.0117274
-0.00361439
-0.014636
-0.025194
-0.0356387
-0.047808
-0.0603687
-0.0744313
0.0270813
0.0188827
0.00756619
-0.00398752
-0.0150137
-0.0252036
-0.0356396
-0.0461565
-0.0576572
-0.0687142
0.0179885
0.0134978
0.00598199
-0.00338657
-0.0134707
-0.0234502
-0.0332299
-0.0427828
-0.0522102
-0.0612963
0.0122875
0.00921412
0.00356429
-0.00408408
-0.0129357
-0.0221758
-0.0313668
-0.0402806
-0.0488733
-0.0570326
0.0100633
0.00752801
0.00278943
-0.00385849
-0.011837
-0.02044
-0.0291142
-0.0375367
-0.0455581
-0.0530891
0.0106976
0.0082169
0.00360631
-0.00285852
-0.0105967
-0.0188998
-0.0272089
-0.0352068
-0.0427693
-0.0498676
0.0141532
0.0112072
0.00592635
-0.00115638
-0.00921601
-0.017502
-0.0255488
-0.0331787
-0.0403837
-0.0471987
0.0208522
0.0165568
0.00965946
0.00119115
-0.00762798
-0.0160512
-0.0238829
-0.0312165
-0.0382016
-0.0449002
0.030993
0.0228941
0.0124586
0.00199848
-0.00730731
-0.0154174
-0.022784
-0.0298299
-0.0367186
-0.0434097
0.0598433
0.0371711
0.0174649
0.00340318
-0.00625275
-0.013946
-0.0211726
-0.0283875
-0.0355407
-0.0424268
-0.0976403
-0.0976737
-0.0977186
-0.0977727
-0.097833
-0.0978992
-0.0979707
-0.0980466
-0.0981254
-0.0982056
-0.0982856
-0.0983637
-0.0984381
-0.0985072
-0.0985694
-0.0986229
-0.0986662
-0.0986981
-0.098717
-0.098722
-0.098712
-0.0986862
-0.0986438
-0.0985844
-0.0985074
-0.0984126
-0.0982998
-0.0981687
-0.0980193
-0.0978514
-0.0976649
-0.0974597
-0.0972356
-0.0969926
-0.0967304
-0.0964483
-0.0961447
-0.0958167
-0.0954584
-0.0950604
-0.0946082
-0.0940816
-0.0934538
-0.0926923
-0.0917595
-0.0906146
-0.0892127
-0.0875047
-0.085434
-0.0829364
-0.0799416
-0.0763767
-0.0721703
-0.0672639
-0.0616234
-0.0552446
-0.0481695
-0.0404653
-0.032227
-0.0235835
-0.0146885
-0.00571583
0.00315986
0.0117613
0.0199208
0.0274892
0.0343346
0.0403608
0.0454915
0.0496917
0.0529399
0.0552545
0.0566591
0.0572129
0.0569689
0.0560104
0.0544016
0.0522331
0.0495659
0.046488
0.0430458
0.0393173
0.0353272
0.0311427
0.0267611
0.0222445
0.0175542
0.0127631
0.00776935
0.00270739
-0.0976358
-0.0976674
-0.0976945
-0.097736
-0.0977872
-0.0978468
-0.0979131
-0.0979844
-0.0980593
-0.0981362
-0.0982133
-0.098289
-0.0983615
-0.0984291
-0.09849
-0.0985425
-0.0985852
-0.0986165
-0.0986351
-0.0986398
-0.0986295
-0.0986032
-0.0985602
-0.0984999
-0.0984217
-0.0983252
-0.0982101
-0.0980762
-0.0979231
-0.0977507
-0.0975587
-0.0973466
-0.0971141
-0.0968604
-0.0965846
-0.0962857
-0.0959616
-0.0956091
-0.0952231
-0.0947957
-0.0943154
-0.0937669
-0.0931297
-0.0923781
-0.0914807
-0.0904005
-0.089094
-0.0875099
-0.0855854
-0.0832443
-0.0804002
-0.0769659
-0.072862
-0.0680446
-0.062506
-0.056233
-0.0492354
-0.0415763
-0.0333585
-0.0247174
-0.0158076
-0.00680878
0.00210064
0.0107377
0.0189276
0.0265319
0.0334025
0.03945
0.044597
0.048814
0.0520763
0.0544051
0.0558215
0.0563901
0.0561596
0.0552201
0.0536308
0.0514915
0.048853
0.0458137
0.0424068
0.0387252
0.0347764
0.0306474
0.0263137
0.021859
0.0172198
0.0124896
0.0075732
0.00260596
-0.0975182
-0.0975994
-0.097645
-0.0976985
-0.0977548
-0.0978163
-0.0978842
-0.0979574
-0.0980346
-0.0981141
-0.0981942
-0.0982732
-0.0983491
-0.0984201
-0.0984844
-0.0985403
-0.0985862
-0.0986205
-0.0986418
-0.0986487
-0.0986401
-0.098615
-0.0985727
-0.0985126
-0.0984341
-0.0983368
-0.0982206
-0.0980854
-0.0979311
-0.0977576
-0.0975648
-0.0973525
-0.0971199
-0.0968662
-0.0965902
-0.0962904
-0.0959645
-0.095609
-0.0952192
-0.0947888
-0.0943096
-0.0937716
-0.0931612
-0.0924602
-0.0916434
-0.090675
-0.0895078
-0.0880832
-0.0863277
-0.0841496
-0.0814525
-0.0781741
-0.0742162
-0.0695012
-0.0639907
-0.0577034
-0.050678
-0.042992
-0.0347468
-0.0260782
-0.0171411
-0.00813985
0.000757408
0.00938164
0.0175541
0.0251343
0.0319791
0.0380001
0.0431174
0.0473046
0.0505377
0.0528431
0.0542411
0.0548019
0.0545724
0.0536478
0.0520832
0.0499827
0.0473936
0.0444185
0.0410866
0.0374937
0.0336453
0.0296282
0.0254198
0.0211003
0.016618
0.0120543
0.00733507
0.00255364
-0.0976002
-0.097674
-0.0976782
-0.0977042
-0.0977499
-0.097812
-0.0978854
-0.0979662
-0.0980517
-0.0981398
-0.0982283
-0.0983152
-0.0983985
-0.0984761
-0.0985463
-0.0986073
-0.0986574
-0.098695
-0.0987187
-0.0987272
-0.0987193
-0.0986942
-0.0986511
-0.0985894
-0.0985086
-0.0984083
-0.0982887
-0.0981496
-0.0979913
-0.097814
-0.0976177
-0.0974022
-0.0971669
-0.0969105
-0.0966314
-0.0963282
-0.095999
-0.0956414
-0.0952523
-0.0948272
-0.0943599
-0.0938429
-0.0932687
-0.092624
-0.0918845
-0.0910123
-0.0899529
-0.088644
-0.0870097
-0.0849529
-0.0823645
-0.0791398
-0.0752216
-0.0705422
-0.0650719
-0.0588224
-0.051833
-0.0441876
-0.0359952
-0.027396
-0.0185554
-0.00965796
-0.000885702
0.00759333
0.0156068
0.0230164
0.0296903
0.035544
0.0405035
0.0445454
0.0476518
0.0498529
0.0511738
0.0516858
0.0514394
0.0505285
0.0490101
0.0469848
0.0445021
0.0416588
0.0384878
0.0350764
0.0314358
0.0276424
0.0236843
0.0196289
0.0154413
0.0111837
0.00679983
0.00235209
-0.0972738
-0.0974792
-0.0975701
-0.0976743
-0.0977731
-0.0978665
-0.0979591
-0.0980544
-0.0981521
-0.0982504
-0.0983476
-0.0984418
-0.0985309
-0.0986132
-0.0986869
-0.0987501
-0.0988015
-0.0988393
-0.0988621
-0.0988686
-0.0988578
-0.0988288
-0.098781
-0.0987141
-0.0986276
-0.0985215
-0.0983957
-0.0982509
-0.0980874
-0.0979057
-0.0977061
-0.0974885
-0.0972522
-0.0969953
-0.0967157
-0.0964124
-0.0960839
-0.0957284
-0.0953436
-0.0949263
-0.0944709
-0.0939702
-0.0934222
-0.0928132
-0.0921173
-0.0912941
-0.0902801
-0.089004
-0.0873817
-0.0853283
-0.0827388
-0.0795234
-0.0756072
-0.0709393
-0.0654962
-0.0592949
-0.0523835
-0.0448495
-0.036808
-0.0284024
-0.0197962
-0.0111659
-0.00269096
0.00546315
0.013137
0.0201988
0.0265314
0.0320567
0.0367133
0.0404827
0.0433576
0.0453712
0.0465567
0.046984
0.0467089
0.0458198
0.0443776
0.042474
0.0401625
0.0375283
0.0346095
0.0314801
0.0281593
0.0247087
0.0211281
0.017469
0.0137126
0.00990303
0.00600604
0.00206688
-0.0981056
-0.0981283
-0.0980272
-0.0979823
-0.0979929
-0.0980509
-0.0981389
-0.0982399
-0.0983431
-0.098445
-0.0985437
-0.0986373
-0.0987242
-0.0988029
-0.0988717
-0.0989293
-0.0989742
-0.0990052
-0.0990207
-0.0990196
-0.099001
-0.098964
-0.0989084
-0.098834
-0.0987404
-0.0986276
-0.0984957
-0.0983454
-0.0981774
-0.0979922
-0.0977902
-0.0975712
-0.0973342
-0.0970771
-0.0967965
-0.0964959
-0.0961721
-0.095822
-0.0954433
-0.0950333
-0.094587
-0.0940944
-0.0935401
-0.0929152
-0.0921931
-0.0913312
-0.0902683
-0.0889345
-0.0872462
-0.0851172
-0.0824532
-0.0791725
-0.0752092
-0.070525
-0.0651069
-0.0589793
-0.0521988
-0.044858
-0.0370763
-0.0289981
-0.0207826
-0.0125978
-0.0046104
0.00302419
0.010164
0.0166899
0.022503
0.0275362
0.0317453
0.0351197
0.0376654
0.0394188
0.0404224
0.0407428
0.040441
0.0395967
0.0382737
0.0365512
0.034485
0.032146
0.0295758
0.026833
0.0239429
0.0209513
0.0178675
0.0147268
0.0115243
0.0082885
0.0050043
0.00170074
-0.0967786
-0.0974255
-0.0976284
-0.0978851
-0.0981007
-0.098264
-0.0983863
-0.0984874
-0.0985804
-0.0986688
-0.0987529
-0.0988316
-0.0989035
-0.0989674
-0.099022
-0.0990661
-0.0990986
-0.0991182
-0.0991233
-0.0991126
-0.0990852
-0.0990402
-0.0989774
-0.0988963
-0.0987967
-0.0986781
-0.0985411
-0.0983875
-0.0982173
-0.0980307
-0.0978279
-0.0976087
-0.0973722
-0.0971163
-0.0968358
-0.0965257
-0.0961896
-0.0958252
-0.0954279
-0.0949922
-0.0945111
-0.093975
-0.0933695
-0.0926764
-0.0918649
-0.090892
-0.0896983
-0.0882156
-0.0863659
-0.0840705
-0.0812509
-0.0778404
-0.0737878
-0.0690684
-0.0636829
-0.0576664
-0.0510841
-0.0440339
-0.0366363
-0.0290332
-0.0213754
-0.0138192
-0.00651218
0.000408973
0.00682647
0.0126405
0.0177753
0.02218
0.0258296
0.0287237
0.0308819
0.0323425
0.033155
0.0333802
0.0330811
0.0323259
0.0311778
0.0297017
0.0279525
0.0259855
0.0238429
0.0215679
0.0191891
0.0167375
0.014229
0.0116848
0.0091102
0.00652009
0.00391383
0.00130711
-0.101492
-0.100112
-0.0994837
-0.0990504
-0.098824
-0.0987348
-0.098723
-0.0987476
-0.0987865
-0.0988324
-0.0988819
-0.0989317
-0.0989797
-0.0990242
-0.0990632
-0.0990946
-0.0991171
-0.0991277
-0.0991241
-0.0991057
-0.0990721
-0.0990226
-0.0989569
-0.0988744
-0.098774
-0.0986544
-0.098514
-0.098353
-0.0981739
-0.0979771
-0.0977613
-0.0975251
-0.0972665
-0.0969827
-0.0966699
-0.0963252
-0.0959462
-0.095529
-0.0950675
-0.0945546
-0.0939805
-0.0933329
-0.0925941
-0.0917413
-0.0907424
-0.0895554
-0.0881267
-0.0863949
-0.084293
-0.0817556
-0.0787218
-0.0751447
-0.0709926
-0.0662571
-0.0609539
-0.0551288
-0.0488528
-0.0422243
-0.0353595
-0.028392
-0.0214577
-0.0146953
-0.00823053
-0.00217588
0.00338037
0.0083635
0.0127238
0.0164294
0.019474
0.0218663
0.0236353
0.0248186
0.0254672
0.0256335
0.0253777
0.0247552
0.0238255
0.0226389
0.021247
0.0196902
0.0180095
0.0162335
0.0143926
0.0125045
0.0105902
0.0086583
0.00672254
0.00478517
0.0028553
0.000932538
-0.0956494
-0.0967369
-0.0975745
-0.0981866
-0.0985035
-0.0986222
-0.0986568
-0.0986704
-0.0986863
-0.0987165
-0.0987558
-0.0987967
-0.0988374
-0.0988764
-0.0989118
-0.0989415
-0.0989645
-0.0989806
-0.098985
-0.098972
-0.0989399
-0.0988884
-0.0988171
-0.0987265
-0.0986154
-0.0984814
-0.0983226
-0.0981382
-0.0979287
-0.0976934
-0.097431
-0.0971392
-0.0968152
-0.0964555
-0.0960557
-0.095611
-0.0951164
-0.0945663
-0.0939537
-0.0932695
-0.0925021
-0.0916368
-0.090655
-0.089534
-0.0882439
-0.0867478
-0.0850014
-0.082956
-0.0805604
-0.0777661
-0.0745304
-0.0708221
-0.0666275
-0.0619559
-0.0568377
-0.0513276
-0.0454991
-0.0394466
-0.0332752
-0.0271012
-0.0210377
-0.0151968
-0.00967532
-0.00456082
8.33139e-05
0.00420723
0.00778588
0.0108042
0.0132699
0.0151964
0.0166168
0.017564
0.0180868
0.0182269
0.0180396
0.0175679
0.0168665
0.0159727
0.0149348
0.0137794
0.0125462
0.0112506
0.00992455
0.00857273
0.0072213
0.00586612
0.00452981
0.00320136
0.00190147
0.0006119
-0.118327
-0.103407
-0.101481
-0.100004
-0.0990895
-0.098661
-0.0984865
-0.0984244
-0.0984056
-0.0984092
-0.0984479
-0.09851
-0.0985749
-0.0986356
-0.0986903
-0.0987376
-0.0987746
-0.0987977
-0.0988018
-0.0987819
-0.098735
-0.09866
-0.0985574
-0.0984277
-0.0982693
-0.098079
-0.0978536
-0.097591
-0.0972896
-0.096948
-0.0965643
-0.0961364
-0.0956614
-0.0951353
-0.0945537
-0.0939115
-0.093203
-0.0924223
-0.0915618
-0.0906128
-0.089564
-0.0884013
-0.0871065
-0.0856568
-0.0840258
-0.0821846
-0.0801009
-0.0777407
-0.0750708
-0.0720617
-0.0686914
-0.064949
-0.0608383
-0.0563802
-0.0516117
-0.0465864
-0.041371
-0.036046
-0.0306984
-0.0254214
-0.0203033
-0.0154289
-0.0108681
-0.00668386
-0.00291907
0.000396376
0.00325442
0.00565079
0.00759974
0.00911569
0.010232
0.0109768
0.011395
0.0115197
0.0114007
0.0110708
0.0105801
0.00995508
0.00924092
0.00845282
0.00762922
0.00677289
0.00591729
0.00505367
0.00421373
0.0033786
0.00258157
0.00179464
0.00105451
0.000320021
-0.0858853
-0.0923414
-0.0948491
-0.0956924
-0.09614
-0.0965419
-0.0969136
-0.097226
-0.0974963
-0.0977317
-0.0979342
-0.0981065
-0.0982514
-0.0983728
-0.098473
-0.0985516
-0.0986053
-0.0986294
-0.098619
-0.0985694
-0.0984775
-0.0983414
-0.0981607
-0.097935
-0.0976631
-0.0973432
-0.0969731
-0.0965512
-0.0960759
-0.095546
-0.0949593
-0.0943126
-0.0936022
-0.0928247
-0.0919765
-0.0910534
-0.0900506
-0.0889624
-0.0877826
-0.0865034
-0.0851155
-0.0836074
-0.0819654
-0.0801736
-0.0782143
-0.0760688
-0.0737171
-0.0711398
-0.0683189
-0.065241
-0.0618989
-0.0582943
-0.054439
-0.0503566
-0.0460819
-0.0416605
-0.0371466
-0.0326039
-0.0281009
-0.0237097
-0.0194982
-0.0155304
-0.0118579
-0.00852242
-0.00554801
-0.00294998
-0.00072778
0.0011213
0.00261388
0.00376578
0.00460912
0.00517045
0.00549113
0.00559969
0.0055402
0.00533812
0.00503714
0.00465537
0.00423328
0.0037774
0.00332344
0.00286375
0.00243139
0.0020046
0.00161917
0.00124041
0.000912951
0.000587126
0.000319405
3.9528e-05
-0.0799562
-0.0877322
-0.091714
-0.0931389
-0.0935738
-0.0939117
-0.0944105
-0.0950271
-0.095648
-0.0961987
-0.0966561
-0.0970286
-0.0973344
-0.0975879
-0.0977962
-0.0979595
-0.0980737
-0.0981326
-0.0981301
-0.0980614
-0.0979229
-0.0977129
-0.0974309
-0.0970772
-0.0966524
-0.0961569
-0.0955909
-0.0949545
-0.0942479
-0.0934709
-0.0926228
-0.0917022
-0.0907077
-0.0896373
-0.0884889
-0.0872598
-0.0859468
-0.0845461
-0.0830531
-0.0814628
-0.0797689
-0.0779645
-0.0760414
-0.0739906
-0.0718024
-0.0694664
-0.0669717
-0.0643083
-0.0614681
-0.058447
-0.0552457
-0.0518712
-0.0483379
-0.0446688
-0.0408957
-0.0370592
-0.0332068
-0.0293891
-0.0256579
-0.0220659
-0.0186628
-0.0154942
-0.0125955
-0.00999371
-0.00770346
-0.00573136
-0.00407025
-0.00270705
-0.00162076
-0.00079167
-0.000190104
0.000210752
0.00044863
0.000552132
0.000559237
0.000490828
0.000379498
0.000236058
9.05335e-05
-5.5942e-05
-0.000175225
-0.000280228
-0.00034346
-0.000393878
-0.000397575
-0.000399842
-0.000349187
-0.000314152
-0.000218478
-0.000166138
-0.0697587
-0.0769471
-0.0822906
-0.0857805
-0.0879251
-0.0893823
-0.0906002
-0.0917579
-0.092868
-0.0938849
-0.0947709
-0.0955161
-0.096131
-0.0966325
-0.097034
-0.0973421
-0.0975573
-0.0976767
-0.0976964
-0.0976132
-0.0974255
-0.0971333
-0.096738
-0.096242
-0.0956485
-0.0949608
-0.0941821
-0.0933152
-0.0923629
-0.0913272
-0.0902099
-0.0890121
-0.087734
-0.0863756
-0.0849361
-0.0834143
-0.0818084
-0.0801166
-0.0783363
-0.0764652
-0.0745001
-0.0724382
-0.0702762
-0.0680108
-0.0656389
-0.0631574
-0.060564
-0.057857
-0.0550362
-0.0521035
-0.0490635
-0.045925
-0.0427018
-0.0394148
-0.0360925
-0.0327718
-0.0294954
-0.0263079
-0.0232521
-0.0203659
-0.0176794
-0.0152155
-0.0129913
-0.011022
-0.00931933
-0.00788713
-0.00671212
-0.00576678
-0.00501831
-0.0044398
-0.00400645
-0.00369645
-0.0034799
-0.00332814
-0.00320989
-0.00310834
-0.00300679
-0.00290346
-0.00278574
-0.00265648
-0.00250035
-0.00232779
-0.00212117
-0.0019031
-0.00164702
-0.00139257
-0.00109508
-0.000824202
-0.000498666
-0.000245416
-0.064546
-0.0711698
-0.0766447
-0.0808663
-0.083958
-0.0862301
-0.0880236
-0.0895773
-0.0909991
-0.0923065
-0.0934795
-0.0944975
-0.0953541
-0.0960551
-0.0966105
-0.0970284
-0.0973127
-0.0974633
-0.0974785
-0.0973567
-0.0970978
-0.0967037
-0.0961778
-0.0955249
-0.0947507
-0.0938612
-0.0928623
-0.0917596
-0.0905584
-0.0892636
-0.0878791
-0.0864082
-0.0848528
-0.0832144
-0.0814934
-0.07969
-0.0778041
-0.0758353
-0.0737836
-0.071649
-0.0694319
-0.0671331
-0.0647539
-0.0622964
-0.0597633
-0.0571586
-0.0544868
-0.0517536
-0.0489652
-0.0461283
-0.0432505
-0.0403411
-0.0374118
-0.034479
-0.031566
-0.0287051
-0.0259368
-0.0233065
-0.0208551
-0.0186099
-0.0165784
-0.014752
-0.0131182
-0.0116778
-0.0104455
-0.00943201
-0.00862381
-0.00798031
-0.00744886
-0.00699256
-0.00659735
-0.00626067
-0.0059725
-0.00571375
-0.0054595
-0.00519298
-0.00490378
-0.0045943
-0.00426723
-0.0039322
-0.00358856
-0.00324283
-0.00288674
-0.0025288
-0.00215448
-0.00178287
-0.00138791
-0.00101353
-0.000601683
-0.000258499
-0.0600468
-0.0663235
-0.0717914
-0.076355
-0.0800212
-0.0829234
-0.0852717
-0.0872657
-0.089038
-0.0906472
-0.0921009
-0.0933855
-0.0944877
-0.0954023
-0.0961316
-0.0966803
-0.0970525
-0.0972498
-0.0972726
-0.0971213
-0.0967982
-0.0963076
-0.095656
-0.094851
-0.0939009
-0.0928145
-0.0916001
-0.0902662
-0.0888212
-0.0872728
-0.0856276
-0.083891
-0.0820669
-0.080158
-0.0781665
-0.0760936
-0.0739408
-0.0717095
-0.0694019
-0.067021
-0.0645704
-0.062055
-0.0594805
-0.0568539
-0.0541835
-0.0514791
-0.0487522
-0.0460155
-0.043282
-0.0405635
-0.0378702
-0.0352108
-0.0325937
-0.0300286
-0.0275283
-0.0251128
-0.0228158
-0.0206843
-0.0187644
-0.0170814
-0.01562
-0.0143309
-0.0131649
-0.0121076
-0.0111789
-0.0104032
-0.00978216
-0.00927709
-0.00882303
-0.00837019
-0.00790759
-0.00745133
-0.00701896
-0.00661606
-0.0062354
-0.00586669
-0.0054982
-0.00512244
-0.00473562
-0.00434068
-0.00393917
-0.0035357
-0.00312832
-0.00272061
-0.00230691
-0.00189413
-0.00147202
-0.00106003
-0.000631125
-0.000251558
-0.0564822
-0.0625585
-0.0680103
-0.07276
-0.0767844
-0.0801374
-0.0829405
-0.085339
-0.0874537
-0.0893562
-0.0910725
-0.0926002
-0.0939264
-0.0950397
-0.0959347
-0.0966104
-0.097068
-0.0973084
-0.0973328
-0.0971433
-0.0967446
-0.0961446
-0.0953543
-0.0943857
-0.0932504
-0.0919599
-0.0905252
-0.0889575
-0.0872679
-0.0854668
-0.0835632
-0.081565
-0.0794784
-0.0773078
-0.075057
-0.0727288
-0.0703262
-0.0678527
-0.0653128
-0.0627123
-0.060059
-0.057362
-0.0546322
-0.0518813
-0.0491221
-0.0463686
-0.0436378
-0.0409496
-0.0383241
-0.0357768
-0.0333172
-0.0309497
-0.0286773
-0.0265019
-0.0244241
-0.0224427
-0.0205726
-0.0188538
-0.017335
-0.016052
-0.0149805
-0.0140468
-0.0131821
-0.0123587
-0.0115856
-0.0108739
-0.0102444
-0.00970309
-0.00921823
-0.00875388
-0.00830248
-0.00786201
-0.00742311
-0.00698231
-0.00653909
-0.00609405
-0.00564971
-0.00521088
-0.00478083
-0.00436044
-0.00394667
-0.00353872
-0.00313296
-0.00272748
-0.00231802
-0.00190566
-0.00148667
-0.00106801
-0.000643936
-0.000255382
-0.0536217
-0.0595976
-0.0650447
-0.0698975
-0.0741353
-0.0777909
-0.0809411
-0.0836846
-0.0861147
-0.0882977
-0.0902662
-0.0920254
-0.093565
-0.0948703
-0.095929
-0.0967337
-0.0972803
-0.0975674
-0.0975955
-0.0973674
-0.0968898
-0.0961744
-0.095238
-0.0940993
-0.0927747
-0.091279
-0.0896264
-0.0878309
-0.0859063
-0.0838658
-0.0817213
-0.079483
-0.0771593
-0.0747571
-0.0722816
-0.0697378
-0.0671303
-0.0644648
-0.0617482
-0.0589892
-0.0561992
-0.0533924
-0.0505852
-0.0477951
-0.0450383
-0.042328
-0.0396825
-0.0371263
-0.0346817
-0.0323615
-0.0301682
-0.0280963
-0.0261391
-0.0242944
-0.0225606
-0.0209385
-0.0194238
-0.0180313
-0.0167888
-0.0157002
-0.0147495
-0.0139101
-0.0131518
-0.0124564
-0.0118224
-0.0112606
-0.0107207
-0.0101542
-0.00955227
-0.00894542
-0.00836576
-0.00782997
-0.00734124
-0.00689296
-0.00646754
-0.00605043
-0.00563405
-0.00521636
-0.00479789
-0.00438074
-0.00396691
-0.00355622
-0.00314692
-0.00273761
-0.00232622
-0.00191184
-0.00149294
-0.00107312
-0.00065774
-0.000252074
-0.0512727
-0.0572282
-0.0626829
-0.0675927
-0.0719579
-0.0758164
-0.0792284
-0.0822616
-0.0849796
-0.0874327
-0.0896499
-0.0916386
-0.0933898
-0.0948867
-0.0961115
-0.0970498
-0.0976914
-0.0980311
-0.0980685
-0.0978072
-0.0972562
-0.0964302
-0.0953518
-0.0940463
-0.0925374
-0.0908465
-0.0889935
-0.0869972
-0.0848748
-0.0826419
-0.0803124
-0.077898
-0.075408
-0.0728505
-0.0702319
-0.0675582
-0.0648355
-0.0620706
-0.0592719
-0.0564499
-0.0536176
-0.050792
-0.0479927
-0.0452422
-0.0425611
-0.0399636
-0.0374722
-0.035107
-0.032879
-0.0307872
-0.0288218
-0.0269657
-0.0251998
-0.0235188
-0.0219393
-0.0204911
-0.0192084
-0.0181071
-0.0171682
-0.0163137
-0.0154431
-0.01452
-0.0135661
-0.0126502
-0.0118461
-0.0111517
-0.0105504
-0.0100026
-0.0094655
-0.00893268
-0.00840913
-0.00790445
-0.00742778
-0.00697248
-0.0065299
-0.00609412
-0.00566256
-0.00523518
-0.00481246
-0.00439354
-0.00397802
-0.00356528
-0.00315407
-0.00274309
-0.00233092
-0.00191642
-0.00149878
-0.00108173
-0.000671752
-0.000250509
-0.0497752
-0.0556998
-0.0611241
-0.0660399
-0.0704716
-0.0744603
-0.0780556
-0.0813064
-0.0842549
-0.0869355
-0.0893682
-0.091557
-0.0934926
-0.0951567
-0.0965274
-0.0975841
-0.0983108
-0.0986975
-0.0987418
-0.0984492
-0.0978331
-0.0969133
-0.0957124
-0.0942574
-0.0925801
-0.0907129
-0.088686
-0.0865254
-0.0842536
-0.0818889
-0.0794461
-0.0769367
-0.0743699
-0.0717524
-0.0690899
-0.0663877
-0.0636509
-0.0608855
-0.0580989
-0.0553009
-0.0525037
-0.0497234
-0.0469797
-0.0442972
-0.0417038
-0.0392331
-0.0369117
-0.0347544
-0.0327611
-0.0309136
-0.0291792
-0.0275185
-0.0258839
-0.02425
-0.0226233
-0.0210424
-0.0195646
-0.018249
-0.0171078
-0.0161049
-0.015196
-0.0143305
-0.0134992
-0.0127089
-0.0119762
-0.0113165
-0.0107095
-0.0101285
-0.00955857
-0.00899967
-0.00845996
-0.00794609
-0.00745857
-0.00699388
-0.00654575
-0.00610811
-0.00567689
-0.00525009
-0.00482709
-0.00440763
-0.00399124
-0.00357717
-0.00316442
-0.00275204
-0.00233912
-0.00192476
-0.00150856
-0.0010934
-0.000682498
-0.000251648
-0.04888
-0.0548246
-0.0602519
-0.0651887
-0.0696747
-0.0737532
-0.077468
-0.0808631
-0.0839752
-0.0868267
-0.0894257
-0.0917679
-0.0938396
-0.0956209
-0.0970895
-0.0982244
-0.099009
-0.0994333
-0.0994958
-0.0992036
-0.0985728
-0.0976267
-0.0963945
-0.094908
-0.0932005
-0.0913043
-0.0892501
-0.0870651
-0.0847727
-0.0823922
-0.0799389
-0.0774249
-0.0748591
-0.0722484
-0.0695985
-0.066914
-0.0641996
-0.0614603
-0.0587026
-0.0559345
-0.0531667
-0.0504125
-0.0476889
-0.0450163
-0.0424179
-0.0399174
-0.0375362
-0.0352888
-0.0331799
-0.0312036
-0.0293482
-0.0275857
-0.0258699
-0.0242021
-0.0225909
-0.0210673
-0.0196715
-0.0184278
-0.017336
-0.0163516
-0.0154195
-0.0145113
-0.0136289
-0.0127961
-0.0120368
-0.0113519
-0.0107265
-0.0101361
-0.00956563
-0.00901266
-0.00848057
-0.00797267
-0.00748839
-0.0070236
-0.00657296
-0.00613215
-0.00569842
-0.00527029
-0.00484687
-0.00442739
-0.00401105
-0.0035969
-0.00318393
-0.00277126
-0.00235824
-0.00194446
-0.00152967
-0.00111431
-0.000697407
-0.000258334
)
;

boundaryField
{
    fixedWalls
    {
        type            zeroGradient;
    }
    inflowWall
    {
        type            zeroGradient;
    }
    outflowWall
    {
        type            fixedValue;
        value           uniform 0;
    }
    frontAndBack
    {
        type            empty;
    }
}


// ************************************************************************* //
