/*--------------------------------*- C++ -*----------------------------------*\
| =========                 |                                                 |
| \\      /  F ield         | OpenFOAM: The Open Source CFD Toolbox           |
|  \\    /   O peration     | Version:  2306                                  |
|   \\  /    A nd           | Website:  www.openfoam.com                      |
|    \\/     M anipulation  |                                                 |
\*---------------------------------------------------------------------------*/
FoamFile
{
    version     2.0;
    format      ascii;
    arch        "LSB;label=32;scalar=64";
    class       surfaceScalarField;
    location    "0.07";
    object      phi;
}
// * * * * * * * * * * * * * * * * * * * * * * * * * * * * * * * * * * * * * //

dimensions      [0 3 -1 0 0 0 0];

oriented        oriented;

internalField   nonuniform List<scalar> 
94400
(
7.3514e-06
2.6486e-06
5.10551e-06
2.24589e-06
3.71255e-06
1.39296e-06
2.84759e-06
8.64963e-07
2.29184e-06
5.55749e-07
1.91984e-06
3.71993e-07
1.65901e-06
2.6083e-07
1.46781e-06
1.91207e-07
1.32232e-06
1.45485e-07
1.20835e-06
1.13969e-07
1.11705e-06
9.12979e-08
1.04265e-06
7.43996e-08
9.81219e-07
6.14352e-08
9.29966e-07
5.12524e-08
8.86868e-07
4.30985e-08
8.50405e-07
3.64627e-08
8.19417e-07
3.09877e-08
7.93001e-07
2.64164e-08
7.70441e-07
2.25595e-08
7.51166e-07
1.92749e-08
7.34712e-07
1.64541e-08
7.20699e-07
1.40127e-08
7.08815e-07
1.18842e-08
6.988e-07
1.00151e-08
6.90438e-07
8.36232e-09
6.83548e-07
6.89016e-09
6.77979e-07
5.56881e-09
6.73606e-07
4.37294e-09
6.70325e-07
3.2806e-09
6.68053e-07
2.27234e-09
6.66723e-07
1.33051e-09
6.66284e-07
4.38515e-10
6.66704e-07
-4.1984e-10
6.67965e-07
-1.26109e-09
6.70068e-07
-2.1031e-09
6.73034e-07
-2.96626e-09
6.7691e-07
-3.87536e-09
6.81772e-07
-4.86248e-09
6.87744e-07
-5.97164e-09
6.95011e-07
-7.26749e-09
7.03863e-07
-8.8518e-09
7.14761e-07
-1.08978e-08
7.28488e-07
-1.37272e-08
7.46481e-07
-1.7993e-08
7.71605e-07
-2.51243e-08
8.10011e-07
-3.84056e-08
8.75631e-07
-6.56199e-08
1.00196e-06
-1.26327e-07
1.27592e-06
-2.73961e-07
-6.46885e-07
1.9228e-06
1.01831e-05
2.46545e-06
9.21642e-06
3.21262e-06
7.94628e-06
2.66311e-06
6.79707e-06
2.01417e-06
5.86116e-06
1.49166e-06
5.12482e-06
1.10834e-06
4.54853e-06
8.37111e-07
4.09409e-06
6.45653e-07
3.73126e-06
5.08312e-07
3.4377e-06
4.07534e-07
3.19718e-06
3.31816e-07
2.99794e-06
2.73635e-07
2.83136e-06
2.28016e-07
2.69101e-06
1.91601e-07
2.57204e-06
1.62077e-07
2.47069e-06
1.37811e-07
2.38405e-06
1.17626e-07
2.30981e-06
1.00658e-07
2.24611e-06
8.6259e-08
2.19145e-06
7.39346e-08
2.1446e-06
6.33035e-08
2.10455e-06
5.40661e-08
2.07045e-06
4.59838e-08
2.0416e-06
3.88642e-08
2.01741e-06
3.25496e-08
1.99739e-06
2.69094e-08
1.98113e-06
2.18334e-08
1.96827e-06
1.72272e-08
1.95854e-06
1.30085e-08
1.95171e-06
9.10336e-09
1.9476e-06
5.44407e-09
1.94607e-06
1.966e-09
1.94705e-06
-1.39495e-09
1.95049e-06
-4.70569e-09
1.95643e-06
-8.03991e-09
1.96495e-06
-1.14838e-08
1.97621e-06
-1.51442e-08
1.99051e-06
-1.91615e-08
2.00827e-06
-2.37305e-08
2.03014e-06
-2.9136e-08
2.0571e-06
-3.58161e-08
2.09069e-06
-4.44786e-08
2.13328e-06
-5.63248e-08
2.18878e-06
-7.34905e-08
2.26359e-06
-9.99286e-08
2.36832e-06
-1.43139e-07
2.52011e-06
-2.17409e-07
2.7438e-06
-3.50019e-07
3.06167e-06
-5.91833e-07
-1.01236e-06
3.42715e-06
1.05345e-05
1.93093e-06
1.04951e-05
3.252e-06
9.90364e-06
3.2546e-06
9.09176e-06
2.82605e-06
8.26047e-06
2.32295e-06
7.49888e-06
1.86993e-06
6.83589e-06
1.5001e-06
6.27194e-06
1.20961e-06
5.79637e-06
9.83875e-07
5.39586e-06
8.08047e-07
5.05777e-06
6.69903e-07
4.77129e-06
5.60121e-07
4.5275e-06
4.718e-07
4.31922e-06
3.99881e-07
4.14065e-06
3.40646e-07
3.98712e-06
2.91339e-07
3.85485e-06
2.49897e-07
3.74076e-06
2.14757e-07
3.6423e-06
1.84718e-07
3.55738e-06
1.58848e-07
3.48427e-06
1.36412e-07
3.42151e-06
1.16826e-07
3.36788e-06
9.96179e-08
3.32234e-06
8.44039e-08
3.28402e-06
7.08655e-08
3.2522e-06
5.87366e-08
3.22624e-06
4.77906e-08
3.20564e-06
3.78318e-08
3.18996e-06
2.86878e-08
3.17886e-06
2.02029e-08
3.17207e-06
1.22327e-08
3.1694e-06
4.63816e-09
3.17072e-06
-2.71995e-09
3.176e-06
-9.98825e-09
3.18529e-06
-1.73294e-08
3.19874e-06
-2.49345e-08
3.21664e-06
-3.30402e-08
3.23943e-06
-4.19557e-08
3.26781e-06
-5.2104e-08
3.30276e-06
-6.40889e-08
3.34575e-06
-7.88058e-08
3.3989e-06
-9.7629e-08
3.46531e-06
-1.22731e-07
3.54944e-06
-1.57628e-07
3.65762e-06
-2.08107e-07
3.79817e-06
-2.83682e-07
3.9804e-06
-3.99639e-07
4.20969e-06
-5.79318e-07
4.47214e-06
-8.54274e-07
-1.24789e-06
4.70766e-06
1.04653e-05
1.4656e-06
1.07771e-05
2.94022e-06
1.06759e-05
3.35585e-06
1.02726e-05
3.22929e-06
9.71477e-06
2.8808e-06
9.10821e-06
2.4765e-06
8.51543e-06
2.09288e-06
7.96727e-06
1.75777e-06
7.47533e-06
1.47582e-06
7.04096e-06
1.24242e-06
6.66069e-06
1.05017e-06
6.32917e-06
8.91642e-07
6.04064e-06
7.60325e-07
5.78965e-06
6.50873e-07
5.57128e-06
5.59011e-07
5.38126e-06
4.81362e-07
5.21589e-06
4.15266e-07
5.07203e-06
3.58623e-07
4.94698e-06
3.09767e-07
4.83846e-06
2.67369e-07
4.74451e-06
2.30357e-07
4.66348e-06
1.97862e-07
4.59392e-06
1.69171e-07
4.53464e-06
1.43692e-07
4.48457e-06
1.20931e-07
4.44284e-06
1.00467e-07
4.40869e-06
8.19411e-08
4.38148e-06
6.50371e-08
4.3607e-06
4.94746e-08
4.3459e-06
3.49984e-08
4.33677e-06
2.13692e-08
4.33305e-06
8.35497e-09
4.33461e-06
-4.27812e-09
4.3414e-06
-1.67773e-08
4.35348e-06
-2.94173e-08
4.37107e-06
-4.25189e-08
4.3945e-06
-5.64764e-08
4.42435e-06
-7.17965e-08
4.4614e-06
-8.91566e-08
4.5068e-06
-1.09494e-07
4.56214e-06
-1.34146e-07
4.62957e-06
-1.65056e-07
4.71195e-06
-2.05108e-07
4.81292e-06
-2.58606e-07
4.93678e-06
-3.31963e-07
5.08763e-06
-4.34536e-07
5.26728e-06
-5.79283e-07
5.47038e-06
-7.82421e-07
5.67595e-06
-1.05984e-06
-1.41385e-06
5.84192e-06
1.0342e-05
1.12357e-06
1.07373e-05
2.54497e-06
1.09004e-05
3.19274e-06
1.08069e-05
3.32277e-06
1.05227e-05
3.16497e-06
1.01253e-05
2.87393e-06
9.67707e-06
2.54111e-06
9.22027e-06
2.21457e-06
8.7801e-06
1.91599e-06
8.36984e-06
1.65268e-06
7.99524e-06
1.42477e-06
7.65762e-06
1.22927e-06
7.35584e-06
1.0621e-06
7.0876e-06
9.19118e-07
6.85006e-06
7.96548e-07
6.64031e-06
6.91112e-07
6.45553e-06
6.00042e-07
6.29312e-06
5.21032e-07
6.15072e-06
4.5217e-07
6.02622e-06
3.91875e-07
5.91774e-06
3.38836e-07
5.82364e-06
2.91958e-07
5.74248e-06
2.50326e-07
5.67301e-06
2.13167e-07
5.61412e-06
1.7982e-07
5.56487e-06
1.49719e-07
5.52444e-06
1.22369e-07
5.49214e-06
9.73339e-08
5.4674e-06
7.42187e-08
5.44974e-06
5.26614e-08
5.43879e-06
3.23198e-08
5.43428e-06
1.28597e-08
5.43606e-06
-6.05768e-09
5.44407e-06
-2.47905e-08
5.45839e-06
-4.37353e-08
5.47922e-06
-6.33515e-08
5.50694e-06
-8.41954e-08
5.54211e-06
-1.06967e-07
5.58554e-06
-1.32579e-07
5.63829e-06
-1.62251e-07
5.7018e-06
-1.9765e-07
5.77783e-06
-2.41086e-07
5.8685e-06
-2.95777e-07
5.97609e-06
-3.66192e-07
6.10255e-06
-4.58425e-07
6.24847e-06
-5.80461e-07
6.41114e-06
-7.41953e-07
6.58154e-06
-9.52816e-07
6.74111e-06
-1.21941e-06
-1.53628e-06
6.86354e-06
1.02416e-05
8.81923e-07
1.06171e-05
2.16952e-06
1.08952e-05
2.91465e-06
1.09958e-05
3.22217e-06
1.0925e-05
3.23574e-06
1.07231e-05
3.07583e-06
1.0436e-05
2.82819e-06
1.01029e-05
2.54769e-06
9.75264e-06
2.26626e-06
9.40463e-06
2.00068e-06
9.07094e-06
1.75846e-06
8.75838e-06
1.54183e-06
8.47025e-06
1.35023e-06
8.20762e-06
1.18175e-06
7.97021e-06
1.03396e-06
7.75696e-06
9.04365e-07
7.56639e-06
7.90608e-07
7.39687e-06
6.90556e-07
7.2467e-06
6.02333e-07
7.11427e-06
5.24309e-07
6.99803e-06
4.55077e-07
6.89656e-06
3.93426e-07
6.80857e-06
3.38314e-07
6.7329e-06
2.88837e-07
6.66851e-06
2.44211e-07
6.61449e-06
2.03745e-07
6.57002e-06
1.66831e-07
6.53444e-06
1.32919e-07
6.50715e-06
1.0151e-07
6.48767e-06
7.21379e-08
6.47563e-06
4.43596e-08
6.47075e-06
1.77386e-08
6.47287e-06
-8.16887e-09
6.48191e-06
-3.38315e-08
6.49794e-06
-5.97653e-08
6.52115e-06
-8.65611e-08
6.55187e-06
-1.14922e-07
6.59062e-06
-1.45715e-07
6.63808e-06
-1.80035e-07
6.69512e-06
-2.19297e-07
6.76283e-06
-2.6536e-07
6.84242e-06
-3.20672e-07
6.9351e-06
-3.88459e-07
7.04181e-06
-4.72905e-07
7.16266e-06
-5.79272e-07
7.29599e-06
-7.13796e-07
7.43711e-06
-8.83074e-07
7.57683e-06
-1.09254e-06
7.70094e-06
-1.34352e-06
-1.62871e-06
7.79336e-06
1.01728e-05
7.09166e-07
1.0498e-05
1.84424e-06
1.08085e-05
2.60423e-06
1.1014e-05
3.01664e-06
1.10884e-05
3.16134e-06
1.10421e-05
3.12214e-06
1.09012e-05
2.9691e-06
1.06947e-05
2.75418e-06
1.04483e-05
2.51265e-06
1.01822e-05
2.26674e-06
9.91124e-06
2.02946e-06
9.6454e-06
1.80767e-06
9.39126e-06
1.60438e-06
9.15271e-06
1.4203e-06
8.93183e-06
1.25484e-06
8.72944e-06
1.10675e-06
8.54557e-06
9.74482e-07
8.37971e-06
8.56417e-07
8.23106e-06
7.50983e-07
8.09866e-06
6.56712e-07
7.98146e-06
5.7227e-07
7.87844e-06
4.96451e-07
7.78857e-06
4.28182e-07
7.71091e-06
3.66502e-07
7.64456e-06
3.10556e-07
7.58873e-06
2.59573e-07
7.54271e-06
2.12859e-07
7.50585e-06
1.69777e-07
7.47762e-06
1.29741e-07
7.45756e-06
9.21928e-08
7.44532e-06
5.65994e-08
7.44063e-06
2.24309e-08
7.44331e-06
-1.08524e-08
7.4533e-06
-4.38201e-08
7.47063e-06
-7.70943e-08
7.49545e-06
-1.11379e-07
7.52802e-06
-1.47496e-07
7.56874e-06
-1.86436e-07
7.61812e-06
-2.29413e-07
7.67677e-06
-2.77945e-07
7.74535e-06
-3.33945e-07
7.8245e-06
-3.99822e-07
7.91463e-06
-4.78581e-07
8.0156e-06
-5.73878e-07
8.1263e-06
-6.89977e-07
8.24397e-06
-8.31462e-07
8.36345e-06
-1.00255e-06
8.47674e-06
-1.20582e-06
8.57348e-06
-1.44026e-06
-1.6989e-06
8.64367e-06
1.01274e-05
5.81768e-07
1.04004e-05
1.57122e-06
1.07033e-05
2.30133e-06
1.09559e-05
2.76406e-06
1.11192e-05
2.99802e-06
1.11849e-05
3.0565e-06
1.11623e-05
2.99165e-06
1.10691e-05
2.84741e-06
1.09244e-05
2.65738e-06
1.07456e-05
2.44548e-06
1.05473e-05
2.22775e-06
1.03407e-05
2.01432e-06
1.01339e-05
1.81118e-06
9.93268e-06
1.62149e-06
9.74094e-06
1.44657e-06
9.56109e-06
1.28661e-06
9.39447e-06
1.1411e-06
9.24173e-06
1.00916e-06
9.10297e-06
8.89744e-07
8.97796e-06
7.8172e-07
8.86626e-06
6.83971e-07
8.76728e-06
5.95424e-07
8.6804e-06
5.1507e-07
8.60492e-06
4.41974e-07
8.54021e-06
3.75268e-07
8.48563e-06
3.14153e-07
8.4406e-06
2.57889e-07
8.4046e-06
2.05783e-07
8.37715e-06
1.57184e-07
8.35788e-06
1.11468e-07
8.34645e-06
6.80253e-08
8.34263e-06
2.6251e-08
8.34626e-06
-1.44755e-08
8.35724e-06
-5.4807e-08
8.3756e-06
-9.54517e-08
8.40142e-06
-1.372e-07
8.43488e-06
-1.8096e-07
8.47624e-06
-2.27796e-07
8.52581e-06
-2.7898e-07
8.58392e-06
-3.36051e-07
8.65084e-06
-4.00869e-07
8.7267e-06
-4.75682e-07
8.81127e-06
-5.63148e-07
8.90371e-06
-6.66317e-07
9.00222e-06
-7.88493e-07
9.10366e-06
-9.329e-07
9.20318e-06
-1.10207e-06
9.29426e-06
-1.2969e-06
9.36943e-06
-1.51543e-06
-1.75172e-06
9.42225e-06
1.00972e-05
4.84568e-07
1.03247e-05
1.34368e-06
1.06038e-05
2.02227e-06
1.08695e-05
2.49836e-06
1.10814e-05
2.78611e-06
1.12214e-05
2.91646e-06
1.12876e-05
2.92551e-06
1.12874e-05
2.8476e-06
1.12329e-05
2.71183e-06
1.11374e-05
2.54105e-06
1.1013e-05
2.35215e-06
1.08703e-05
2.15702e-06
1.07178e-05
1.96366e-06
1.05621e-05
1.77717e-06
1.04081e-05
1.60055e-06
1.02594e-05
1.43538e-06
1.01182e-05
1.28224e-06
9.98627e-06
1.14111e-06
9.86445e-06
1.01156e-06
9.75324e-06
8.9293e-07
9.65278e-06
7.84434e-07
9.56297e-06
6.8523e-07
9.48358e-06
5.94463e-07
9.41426e-06
5.11291e-07
9.35463e-06
4.349e-07
9.30427e-06
3.64513e-07
9.26277e-06
2.99383e-07
9.22976e-06
2.388e-07
9.20487e-06
1.82076e-07
9.18779e-06
1.28545e-07
9.17826e-06
7.7548e-08
9.17609e-06
2.84216e-08
9.18113e-06
-1.95135e-08
9.1933e-06
-6.69718e-08
9.21257e-06
-1.14723e-07
9.23898e-06
-1.63614e-07
9.27263e-06
-2.14603e-07
9.31362e-06
-2.68786e-07
9.36207e-06
-3.27439e-07
9.41808e-06
-3.92052e-07
9.48158e-06
-4.64369e-07
9.5523e-06
-5.46401e-07
9.62957e-06
-6.40423e-07
9.71215e-06
-7.48892e-07
9.79794e-06
-8.7429e-07
9.88385e-06
-1.0188e-06
9.96562e-06
-1.18384e-06
1.00381e-05
-1.36936e-06
1.00958e-05
-1.57317e-06
-1.79041e-06
1.01345e-05
1.00765e-05
4.0809e-07
1.02668e-05
1.15335e-06
1.05173e-05
1.77178e-06
1.07778e-05
2.23786e-06
1.10117e-05
2.55225e-06
1.11973e-05
2.73087e-06
1.13257e-05
2.79703e-06
1.13974e-05
2.77595e-06
1.1418e-05
2.69123e-06
1.1396e-05
2.56298e-06
1.13408e-05
2.40736e-06
1.12612e-05
2.23668e-06
1.11648e-05
2.05999e-06
1.10584e-05
1.88364e-06
1.0947e-05
1.71193e-06
1.08348e-05
1.54757e-06
1.07248e-05
1.39218e-06
1.06194e-05
1.24656e-06
1.052e-05
1.11093e-06
1.04278e-05
9.85156e-07
1.03434e-05
8.68854e-07
1.02671e-05
7.61477e-07
1.01992e-05
6.62388e-07
1.01396e-05
5.709e-07
1.00882e-05
4.86305e-07
1.00448e-05
4.07891e-07
1.00093e-05
3.3495e-07
9.98127e-06
2.66783e-07
9.96065e-06
2.02701e-07
9.94717e-06
1.42022e-07
9.94066e-06
8.40582e-08
9.94096e-06
2.81164e-08
9.94797e-06
-2.65203e-08
9.9616e-06
-8.0604e-08
9.98182e-06
-1.34939e-07
1.00086e-05
-1.90404e-07
1.0042e-05
-2.47969e-07
1.00819e-05
-3.08726e-07
1.01284e-05
-3.7391e-07
1.01813e-05
-4.44924e-07
1.02402e-05
-5.2335e-07
1.03048e-05
-6.10941e-07
1.03739e-05
-7.09592e-07
1.04463e-05
-8.21239e-07
1.05197e-05
-9.47701e-07
1.05913e-05
-1.09041e-06
1.06575e-05
-1.25006e-06
1.07143e-05
-1.42612e-06
1.07576e-05
-1.6165e-06
-1.81724e-06
1.07845e-05
1.00618e-05
3.46332e-07
1.02223e-05
9.92809e-07
1.04447e-05
1.54939e-06
1.06911e-05
1.99149e-06
1.09303e-05
2.31304e-06
1.11408e-05
2.52035e-06
1.13104e-05
2.62739e-06
1.14347e-05
2.65168e-06
1.15146e-05
2.61134e-06
1.15545e-05
2.52311e-06
1.15604e-05
2.4014e-06
1.15391e-05
2.25799e-06
1.1497e-05
2.10212e-06
1.14399e-05
1.94076e-06
1.13728e-05
1.77902e-06
1.12999e-05
1.62049e-06
1.12245e-05
1.46756e-06
1.11493e-05
1.32178e-06
1.10762e-05
1.18398e-06
1.10068e-05
1.05454e-06
1.09422e-05
9.33502e-07
1.0883e-05
8.20636e-07
1.08298e-05
7.15564e-07
1.0783e-05
6.17794e-07
1.07425e-05
5.26762e-07
1.07085e-05
4.41859e-07
1.0681e-05
3.62446e-07
1.06599e-05
2.87872e-07
1.06452e-05
2.17472e-07
1.06366e-05
1.50572e-07
1.06342e-05
8.64859e-08
1.06378e-05
2.45091e-08
1.06474e-05
-3.60878e-08
1.06628e-05
-9.60708e-08
1.06842e-05
-1.56255e-07
1.07113e-05
-2.1752e-07
1.07441e-05
-2.80824e-07
1.07826e-05
-3.47223e-07
1.08266e-05
-4.17884e-07
1.08758e-05
-4.94093e-07
1.09297e-05
-5.77252e-07
1.09876e-05
-6.68863e-07
1.10485e-05
-7.70472e-07
1.11108e-05
-8.83583e-07
1.11726e-05
-1.0095e-06
1.12313e-05
-1.14913e-06
1.1284e-05
-1.30272e-06
1.13274e-05
-1.46953e-06
1.13586e-05
-1.64766e-06
-1.83394e-06
1.13753e-05
1.0051e-05
2.95379e-07
1.01877e-05
8.56059e-07
1.03846e-05
1.35254e-06
1.06131e-05
1.76291e-06
1.0848e-05
2.07818e-06
1.10694e-05
2.29894e-06
1.12642e-05
2.43262e-06
1.14251e-05
2.49075e-06
1.15498e-05
2.48662e-06
1.16394e-05
2.43352e-06
1.16971e-05
2.34367e-06
1.17274e-05
2.22771e-06
1.17351e-05
2.09445e-06
1.17249e-05
1.95094e-06
1.17013e-05
1.80266e-06
1.1668e-05
1.65371e-06
1.16285e-05
1.50708e-06
1.15854e-05
1.36485e-06
1.1541e-05
1.22841e-06
1.1497e-05
1.09858e-06
1.14547e-05
9.75775e-07
1.14152e-05
8.60117e-07
1.13793e-05
7.51487e-07
1.13475e-05
6.49605e-07
1.13202e-05
5.54072e-07
1.12976e-05
4.64407e-07
1.128e-05
3.80068e-07
1.12674e-05
3.00472e-07
1.12599e-05
2.25003e-07
1.12574e-05
1.5302e-07
1.12601e-05
8.38571e-08
1.12678e-05
1.68239e-08
1.12805e-05
-4.88011e-08
1.12982e-05
-1.13776e-07
1.13208e-05
-1.78904e-07
1.13483e-05
-2.45044e-07
1.13806e-05
-3.13118e-07
1.14175e-05
-3.84125e-07
1.14588e-05
-4.59144e-07
1.1504e-05
-5.3933e-07
1.15527e-05
-6.25909e-07
1.1604e-05
-7.20146e-07
1.16568e-05
-8.23288e-07
1.17097e-05
-9.36485e-07
1.17609e-05
-1.06066e-06
1.18081e-05
-1.19637e-06
1.18489e-05
-1.34356e-06
1.18809e-05
-1.50146e-06
1.19016e-05
-1.66841e-06
-1.84182e-06
1.19095e-05
1.00428e-05
2.5258e-07
1.01605e-05
7.38377e-07
1.03349e-05
1.17807e-06
1.0545e-05
1.55287e-06
1.07702e-05
1.85296e-06
1.09934e-05
2.07574e-06
1.12017e-05
2.22431e-06
1.13867e-05
2.30576e-06
1.15439e-05
2.3294e-06
1.1672e-05
2.30539e-06
1.1772e-05
2.2437e-06
1.18462e-05
2.1535e-06
1.18979e-05
2.04277e-06
1.19306e-05
1.91826e-06
1.19478e-05
1.78543e-06
1.19529e-05
1.64862e-06
1.19489e-05
1.51113e-06
1.19383e-05
1.37544e-06
1.19234e-05
1.24332e-06
1.1906e-05
1.11598e-06
1.18876e-05
9.94158e-07
1.18694e-05
8.78274e-07
1.18525e-05
7.68461e-07
1.18374e-05
6.6465e-07
1.18249e-05
5.66614e-07
1.18153e-05
4.7401e-07
1.18089e-05
3.86408e-07
1.18061e-05
3.03309e-07
1.18069e-05
2.24166e-07
1.18116e-05
1.48387e-07
1.18201e-05
7.53467e-08
1.18325e-05
4.38517e-09
1.18489e-05
-6.51916e-08
1.18692e-05
-1.34115e-07
1.18935e-05
-2.03157e-07
1.19216e-05
-2.73137e-07
1.19534e-05
-3.44926e-07
1.19887e-05
-4.19448e-07
1.20273e-05
-4.97684e-07
1.20686e-05
-5.80658e-07
1.21121e-05
-6.69426e-07
1.2157e-05
-7.6504e-07
1.22022e-05
-8.685e-07
1.22464e-05
-9.80677e-07
1.22879e-05
-1.10221e-06
1.2325e-05
-1.23341e-06
1.23555e-05
-1.37408e-06
1.23775e-05
-1.52346e-06
1.23892e-05
-1.68011e-06
-1.84194e-06
1.23893e-05
1.00365e-05
2.16073e-07
1.01388e-05
6.36075e-07
1.0294e-05
1.02286e-06
1.04862e-05
1.36064e-06
1.06993e-05
1.63988e-06
1.09187e-05
1.85638e-06
1.11325e-05
2.01052e-06
1.1332e-05
2.1062e-06
1.15117e-05
2.14968e-06
1.16687e-05
2.14844e-06
1.18021e-05
2.11034e-06
1.19126e-05
2.043e-06
1.20019e-05
1.95341e-06
1.20725e-05
1.84769e-06
1.21269e-05
1.73107e-06
1.21677e-05
1.60782e-06
1.21974e-05
1.48139e-06
1.22184e-05
1.35445e-06
1.22327e-05
1.22902e-06
1.22421e-05
1.10657e-06
1.22481e-05
9.88134e-07
1.2252e-05
8.74349e-07
1.22549e-05
7.65575e-07
1.22576e-05
6.61933e-07
1.22609e-05
5.63361e-07
1.22653e-05
4.69653e-07
1.22712e-05
3.80493e-07
1.2279e-05
2.95479e-07
1.2289e-05
2.14138e-07
1.23015e-05
1.35944e-07
1.23165e-05
6.03224e-08
1.23342e-05
-1.33394e-08
1.23547e-05
-8.56937e-08
1.2378e-05
-1.57429e-07
1.24042e-05
-2.29274e-07
1.2433e-05
-3.01993e-07
1.24645e-05
-3.76391e-07
1.24983e-05
-4.53314e-07
1.25343e-05
-5.33636e-07
1.25719e-05
-6.18255e-07
1.26105e-05
-7.0807e-07
1.26494e-05
-8.03951e-07
1.26876e-05
-9.06691e-07
1.27239e-05
-1.01694e-06
1.27568e-05
-1.13515e-06
1.27849e-05
-1.26144e-06
1.28063e-05
-1.39556e-06
1.28197e-05
-1.53678e-06
1.28234e-05
-1.68387e-06
-1.83513e-06
1.28166e-05
1.00316e-05
1.84506e-07
1.01214e-05
5.4626e-07
1.02602e-05
8.84068e-07
1.0436e-05
1.18481e-06
1.06361e-05
1.43976e-06
1.08484e-05
1.64409e-06
1.10624e-05
1.79658e-06
1.12696e-05
1.89899e-06
1.1464e-05
1.95525e-06
1.16417e-05
1.9707e-06
1.18007e-05
1.95136e-06
1.19404e-05
1.90336e-06
1.20611e-05
1.83263e-06
1.21643e-05
1.74456e-06
1.22514e-05
1.64391e-06
1.23245e-05
1.53474e-06
1.23855e-05
1.42044e-06
1.24362e-05
1.30372e-06
1.24785e-05
1.18673e-06
1.25139e-05
1.07111e-06
1.2544e-05
9.58052e-07
1.257e-05
8.48389e-07
1.25929e-05
7.4265e-07
1.26137e-05
6.41118e-07
1.26332e-05
5.43874e-07
1.2652e-05
4.50838e-07
1.26707e-05
3.61805e-07
1.26897e-05
2.76465e-07
1.27094e-05
1.94428e-07
1.27301e-05
1.15236e-07
1.27521e-05
3.83787e-08
1.27754e-05
-3.67026e-08
1.28004e-05
-1.10607e-07
1.28269e-05
-1.83969e-07
1.28551e-05
-2.57462e-07
1.28849e-05
-3.31787e-07
1.29162e-05
-4.07677e-07
1.29487e-05
-4.8589e-07
1.29823e-05
-5.67199e-07
1.30164e-05
-6.52381e-07
1.30506e-05
-7.42195e-07
1.3084e-05
-8.37352e-07
1.31157e-05
-9.38477e-07
1.31449e-05
-1.04606e-06
1.31701e-05
-1.16038e-06
1.31901e-05
-1.28148e-06
1.32036e-05
-1.40906e-06
1.32093e-05
-1.54245e-06
1.3206e-05
-1.6806e-06
-1.82211e-06
1.3193e-05
1.00276e-05
1.56869e-07
1.01073e-05
4.66635e-07
1.02322e-05
7.59165e-07
1.03933e-05
1.02365e-06
1.05807e-05
1.25237e-06
1.07843e-05
1.44048e-06
1.0995e-05
1.5859e-06
1.1205e-05
1.68897e-06
1.14083e-05
1.75199e-06
1.16004e-05
1.7786e-06
1.17785e-05
1.7733e-06
1.19409e-05
1.74091e-06
1.20872e-05
1.68631e-06
1.22177e-05
1.6141e-06
1.23331e-05
1.5285e-06
1.24346e-05
1.43321e-06
1.25237e-05
1.33142e-06
1.26016e-05
1.22577e-06
1.26699e-05
1.11842e-06
1.273e-05
1.01105e-06
1.2783e-05
9.04975e-07
1.28303e-05
8.01125e-07
1.28728e-05
7.00156e-07
1.29115e-05
6.0247e-07
1.29471e-05
5.08265e-07
1.29803e-05
4.17567e-07
1.30119e-05
3.30267e-07
1.30422e-05
2.46143e-07
1.30717e-05
1.64885e-07
1.31009e-05
8.61055e-08
1.31299e-05
9.35905e-09
1.3159e-05
-6.58513e-08
1.31885e-05
-1.40065e-07
1.32184e-05
-2.13857e-07
1.32488e-05
-2.87837e-07
1.32796e-05
-3.62637e-07
1.33108e-05
-4.38915e-07
1.33423e-05
-5.17339e-07
1.33737e-05
-5.98586e-07
1.34046e-05
-6.83318e-07
1.34346e-05
-7.7217e-07
1.3463e-05
-8.65719e-07
1.34889e-05
-9.64455e-07
1.35116e-05
-1.06873e-06
1.353e-05
-1.17874e-06
1.35429e-05
-1.29442e-06
1.35493e-05
-1.41548e-06
1.35482e-05
-1.54132e-06
1.35387e-05
-1.67104e-06
-1.80347e-06
1.352e-05
1.00245e-05
1.32381e-07
1.00958e-05
3.9535e-07
1.0209e-05
6.45961e-07
1.03573e-05
8.75369e-07
1.05327e-05
1.07694e-06
1.07271e-05
1.24611e-06
1.09325e-05
1.38042e-06
1.11421e-05
1.47938e-06
1.135e-05
1.54414e-06
1.15515e-05
1.5771e-06
1.17433e-05
1.58149e-06
1.19231e-05
1.56106e-06
1.20898e-05
1.51968e-06
1.22426e-05
1.46122e-06
1.23819e-05
1.38929e-06
1.25079e-05
1.30718e-06
1.26215e-05
1.21776e-06
1.27238e-05
1.12352e-06
1.28157e-05
1.02652e-06
1.28983e-05
9.28414e-07
1.29728e-05
8.30529e-07
1.30401e-05
7.33856e-07
1.31011e-05
6.39115e-07
1.31568e-05
5.46784e-07
1.32079e-05
4.57142e-07
1.32552e-05
3.70299e-07
1.32992e-05
2.86224e-07
1.33406e-05
2.04771e-07
1.33798e-05
1.257e-07
1.34172e-05
4.86922e-08
1.34532e-05
-2.66334e-08
1.3488e-05
-1.00711e-07
1.3522e-05
-1.74018e-07
1.35552e-05
-2.47065e-07
1.35878e-05
-3.20395e-07
1.36197e-05
-3.94571e-07
1.36509e-05
-4.7017e-07
1.36814e-05
-5.47777e-07
1.37108e-05
-6.27972e-07
1.37388e-05
-7.11317e-07
1.37649e-05
-7.98336e-07
1.37887e-05
-8.89493e-07
1.38094e-05
-9.85165e-07
1.38263e-05
-1.08561e-06
1.38385e-05
-1.19092e-06
1.38451e-05
-1.30102e-06
1.38452e-05
-1.4156e-06
1.3838e-05
-1.53412e-06
1.38228e-05
-1.65582e-06
-1.7797e-06
1.3799e-05
1.00219e-05
1.10432e-07
1.00864e-05
3.3089e-07
1.01898e-05
5.42552e-07
1.0327e-05
7.38237e-07
1.04915e-05
9.1235e-07
1.06768e-05
1.0608e-06
1.08762e-05
1.18108e-06
1.10833e-05
1.27225e-06
1.12928e-05
1.33469e-06
1.15e-05
1.3699e-06
1.17013e-05
1.38016e-06
1.18941e-05
1.36826e-06
1.20765e-05
1.33728e-06
1.22474e-05
1.29035e-06
1.24062e-05
1.23048e-06
1.25528e-05
1.16051e-06
1.26876e-05
1.08297e-06
1.28111e-05
1.00009e-06
1.29238e-05
9.13767e-07
1.30267e-05
8.25568e-07
1.31204e-05
7.36759e-07
1.3206e-05
6.48326e-07
1.32841e-05
5.61002e-07
1.33556e-05
4.75302e-07
1.34211e-05
3.9155e-07
1.34815e-05
3.0991e-07
1.35374e-05
2.3041e-07
1.35892e-05
1.52962e-07
1.36375e-05
7.73881e-08
1.36827e-05
3.42892e-09
1.37253e-05
-6.92363e-08
1.37656e-05
-1.40981e-07
1.38038e-05
-2.12219e-07
1.38401e-05
-2.83399e-07
1.38747e-05
-3.54996e-07
1.39077e-05
-4.27501e-07
1.39389e-05
-5.01415e-07
1.39684e-05
-5.77241e-07
1.39959e-05
-6.55471e-07
1.40211e-05
-7.36573e-07
1.40438e-05
-8.20974e-07
1.40633e-05
-9.09043e-07
1.40792e-05
-1.00106e-06
1.40908e-05
-1.09721e-06
1.40974e-05
-1.19753e-06
1.40983e-05
-1.3019e-06
1.40927e-05
-1.41002e-06
1.408e-05
-1.52143e-06
1.40597e-05
-1.63544e-06
-1.75122e-06
1.40312e-05
1.00199e-05
9.05237e-08
1.00788e-05
2.71996e-07
1.01741e-05
4.47272e-07
1.03017e-05
6.10592e-07
1.04567e-05
7.57333e-07
1.06336e-05
8.83962e-07
1.08265e-05
9.88131e-07
1.10301e-05
1.06869e-06
1.12392e-05
1.12559e-06
1.14494e-05
1.15967e-06
1.16571e-05
1.1725e-06
1.18592e-05
1.16613e-06
1.20536e-05
1.14292e-06
1.22386e-05
1.10534e-06
1.24132e-05
1.05587e-06
1.25768e-05
9.96867e-07
1.27293e-05
9.30484e-07
1.28707e-05
8.58661e-07
1.30014e-05
7.83072e-07
1.31219e-05
7.05133e-07
1.32326e-05
6.26006e-07
1.33343e-05
5.4661e-07
1.34277e-05
4.6765e-07
1.35133e-05
3.89634e-07
1.3592e-05
3.12899e-07
1.36643e-05
2.37633e-07
1.37308e-05
1.639e-07
1.37921e-05
9.16552e-08
1.38487e-05
2.07652e-08
1.39011e-05
-4.89768e-08
1.39497e-05
-1.17838e-07
1.39949e-05
-1.86136e-07
1.40369e-05
-2.54226e-07
1.4076e-05
-3.22494e-07
1.41123e-05
-3.91348e-07
1.4146e-05
-4.61212e-07
1.41771e-05
-5.32512e-07
1.42056e-05
-6.05674e-07
1.42312e-05
-6.81107e-07
1.42538e-05
-7.59196e-07
1.42731e-05
-8.40283e-07
1.42887e-05
-9.24653e-07
1.43002e-05
-1.01251e-06
1.4307e-05
-1.10398e-06
1.43085e-05
-1.19904e-06
1.43041e-05
-1.29756e-06
1.42934e-05
-1.39926e-06
1.42757e-05
-1.50371e-06
1.42505e-05
-1.61032e-06
-1.71837e-06
1.42177e-05
1.00183e-05
7.22486e-08
1.00727e-05
2.17601e-07
1.01613e-05
3.58657e-07
1.0281e-05
4.90879e-07
1.04278e-05
6.10545e-07
1.0597e-05
7.14709e-07
1.07839e-05
8.01306e-07
1.09834e-05
8.69176e-07
1.1191e-05
9.18014e-07
1.14024e-05
9.48253e-07
1.1614e-05
9.60922e-07
1.18226e-05
9.57491e-07
1.20258e-05
9.39721e-07
1.22216e-05
9.09526e-07
1.24086e-05
8.68857e-07
1.25859e-05
8.19615e-07
1.27528e-05
7.63578e-07
1.29091e-05
7.02358e-07
1.30548e-05
6.37378e-07
1.31901e-05
5.69853e-07
1.33153e-05
5.00796e-07
1.34309e-05
4.31021e-07
1.35374e-05
3.61161e-07
1.36353e-05
2.91681e-07
1.37253e-05
2.22899e-07
1.38079e-05
1.55002e-07
1.38838e-05
8.80656e-08
1.39534e-05
2.20701e-08
1.40172e-05
-4.30851e-08
1.40758e-05
-1.07567e-07
1.41296e-05
-1.71598e-07
1.41789e-05
-2.35445e-07
1.4224e-05
-2.99408e-07
1.42654e-05
-3.63815e-07
1.4303e-05
-4.29013e-07
1.43372e-05
-4.95357e-07
1.43679e-05
-5.63206e-07
1.43951e-05
-6.32912e-07
1.44188e-05
-7.04809e-07
1.44388e-05
-7.79206e-07
1.44549e-05
-8.5637e-07
1.44668e-05
-9.36515e-07
1.4474e-05
-1.01978e-06
1.44763e-05
-1.10623e-06
1.44731e-05
-1.19583e-06
1.44639e-05
-1.28842e-06
1.44484e-05
-1.38372e-06
1.4426e-05
-1.48135e-06
1.43965e-05
-1.5808e-06
-1.68143e-06
1.43596e-05
1.0017e-05
5.52602e-08
1.00678e-05
1.66781e-07
1.01511e-05
2.75399e-07
1.02643e-05
3.77644e-07
1.04042e-05
4.7062e-07
1.0567e-05
5.5198e-07
1.07483e-05
6.20009e-07
1.09438e-05
6.73662e-07
1.11492e-05
7.12538e-07
1.13607e-05
7.36811e-07
1.15745e-05
7.4713e-07
1.17875e-05
7.4451e-07
1.1997e-05
7.30223e-07
1.22008e-05
7.05691e-07
1.23973e-05
6.72397e-07
1.25851e-05
6.31806e-07
1.27633e-05
5.85313e-07
1.29315e-05
5.34198e-07
1.30893e-05
4.79604e-07
1.32366e-05
4.22517e-07
1.33736e-05
3.63768e-07
1.35006e-05
3.04029e-07
1.36179e-05
2.4383e-07
1.37261e-05
1.83562e-07
1.38255e-05
1.23496e-07
1.39167e-05
6.37929e-08
1.40002e-05
4.52125e-09
1.40766e-05
-5.43321e-08
1.41464e-05
-1.12848e-07
1.421e-05
-1.71166e-07
1.42679e-05
-2.29471e-07
1.43204e-05
-2.87985e-07
1.4368e-05
-3.46961e-07
1.44108e-05
-4.06673e-07
1.44492e-05
-4.67408e-07
1.44833e-05
-5.29461e-07
1.45132e-05
-5.93125e-07
1.4539e-05
-6.58684e-07
1.45606e-05
-7.26405e-07
1.45779e-05
-7.96527e-07
1.45908e-05
-8.6925e-07
1.4599e-05
-9.44725e-07
1.46023e-05
-1.02304e-06
1.46002e-05
-1.10422e-06
1.45926e-05
-1.18818e-06
1.45789e-05
-1.27476e-06
1.45589e-05
-1.36371e-06
1.45322e-05
-1.45466e-06
1.44986e-05
-1.54715e-06
-1.64064e-06
1.44578e-05
1.0016e-05
3.92586e-08
1.00641e-05
1.18722e-07
1.01431e-05
1.96315e-07
1.02513e-05
2.69517e-07
1.03857e-05
3.362e-07
1.05431e-05
3.94606e-07
1.07197e-05
4.43414e-07
1.09115e-05
4.81774e-07
1.11148e-05
5.09296e-07
1.13256e-05
5.26008e-07
1.15404e-05
5.32295e-07
1.17561e-05
5.2882e-07
1.19699e-05
5.16453e-07
1.21794e-05
4.96186e-07
1.23827e-05
4.69078e-07
1.25783e-05
4.36185e-07
1.27651e-05
3.98528e-07
1.29423e-05
3.57049e-07
1.31093e-05
3.12597e-07
1.32659e-05
2.6591e-07
1.3412e-05
2.17609e-07
1.35479e-05
1.68203e-07
1.36736e-05
1.18088e-07
1.37896e-05
6.75594e-08
1.38963e-05
1.6816e-08
1.39941e-05
-3.40256e-08
1.40836e-05
-8.49225e-08
1.41651e-05
-1.35896e-07
1.42393e-05
-1.8702e-07
1.43065e-05
-2.38415e-07
1.43673e-05
-2.90237e-07
1.4422e-05
-3.42674e-07
1.4471e-05
-3.95933e-07
1.45145e-05
-4.5024e-07
1.45529e-05
-5.05828e-07
1.45864e-05
-5.62934e-07
1.46151e-05
-6.21792e-07
1.4639e-05
-6.82622e-07
1.46583e-05
-7.4563e-07
1.46727e-05
-8.10991e-07
1.46823e-05
-8.78848e-07
1.46869e-05
-9.49296e-07
1.46862e-05
-1.02238e-06
1.46801e-05
-1.09807e-06
1.46682e-05
-1.17628e-06
1.46502e-05
-1.25683e-06
1.4626e-05
-1.33947e-06
1.45952e-05
-1.42387e-06
1.45577e-05
-1.5096e-06
-1.59619e-06
1.45132e-05
1.00153e-05
2.39771e-08
1.00613e-05
7.26876e-08
1.01373e-05
1.20314e-07
1.02416e-05
1.65202e-07
1.03719e-05
2.05944e-07
1.05251e-05
2.41359e-07
1.0698e-05
2.70544e-07
1.08869e-05
2.92894e-07
1.10881e-05
3.08101e-07
1.1298e-05
3.16128e-07
1.15131e-05
3.17176e-07
1.17303e-05
3.11634e-07
1.19467e-05
3.0003e-07
1.21599e-05
2.82982e-07
1.23678e-05
2.61157e-07
1.25688e-05
2.3523e-07
1.27614e-05
2.05853e-07
1.29449e-05
1.73634e-07
1.31183e-05
1.39118e-07
1.32815e-05
1.02781e-07
1.34341e-05
6.50224e-08
1.35761e-05
2.61632e-08
1.37077e-05
-1.35488e-08
1.38292e-05
-5.39363e-08
1.39409e-05
-9.48867e-08
1.40432e-05
-1.36345e-07
1.41366e-05
-1.78307e-07
1.42216e-05
-2.20815e-07
1.42985e-05
-2.63945e-07
1.43679e-05
-3.07809e-07
1.44302e-05
-3.52541e-07
1.44858e-05
-3.98298e-07
1.45351e-05
-4.45249e-07
1.45784e-05
-4.93575e-07
1.46161e-05
-5.43461e-07
1.46482e-05
-5.9509e-07
1.46751e-05
-6.48639e-07
1.46967e-05
-7.04273e-07
1.47132e-05
-7.62139e-07
1.47246e-05
-8.22358e-07
1.47308e-05
-8.85017e-07
1.47316e-05
-9.50163e-07
1.47271e-05
-1.0178e-06
1.47169e-05
-1.08786e-06
1.47008e-05
-1.16025e-06
1.46788e-05
-1.23477e-06
1.46505e-05
-1.31118e-06
1.46158e-05
-1.38916e-06
1.45745e-05
-1.46833e-06
-1.54826e-06
1.45266e-05
1.00148e-05
9.17194e-09
1.00595e-05
2.79996e-08
1.01334e-05
4.63757e-08
1.02352e-05
6.34588e-08
1.03626e-05
7.85281e-08
1.0513e-05
9.09744e-08
1.06832e-05
1.00321e-07
1.08699e-05
1.06239e-07
1.10694e-05
1.08544e-07
1.12784e-05
1.07187e-07
1.14933e-05
1.02236e-07
1.17111e-05
9.38529e-08
1.19288e-05
8.22696e-08
1.2144e-05
6.77643e-08
1.23546e-05
5.06392e-08
1.25586e-05
3.12009e-08
1.27547e-05
9.74508e-09
1.29418e-05
-1.34555e-08
1.31191e-05
-3.81595e-08
1.3286e-05
-6.41625e-08
1.34423e-05
-9.12997e-08
1.35879e-05
-1.19446e-07
1.37229e-05
-1.48517e-07
1.38474e-05
-1.78464e-07
1.39618e-05
-2.09272e-07
1.40664e-05
-2.4096e-07
1.41617e-05
-2.73573e-07
1.42481e-05
-3.07178e-07
1.4326e-05
-3.41865e-07
1.43959e-05
-3.77741e-07
1.44583e-05
-4.14925e-07
1.45136e-05
-4.53547e-07
1.45621e-05
-4.93743e-07
1.46041e-05
-5.35653e-07
1.46401e-05
-5.79416e-07
1.46702e-05
-6.25167e-07
1.46946e-05
-6.7303e-07
1.47134e-05
-7.23119e-07
1.47268e-05
-7.75526e-07
1.47348e-05
-8.30323e-07
1.47373e-05
-8.87548e-07
1.47343e-05
-9.47206e-07
1.47258e-05
-1.00926e-06
1.47115e-05
-1.07362e-06
1.46915e-05
-1.14016e-06
1.46654e-05
-1.20869e-06
1.46332e-05
-1.27896e-06
1.45947e-05
-1.35067e-06
1.45498e-05
-1.42348e-06
-1.49698e-06
1.44986e-05
1.00146e-05
-5.38635e-09
1.00585e-05
-1.59868e-08
1.01314e-05