/*--------------------------------*- C++ -*----------------------------------*\
| =========                 |                                                 |
| \\      /  F ield         | OpenFOAM: The Open Source CFD Toolbox           |
|  \\    /   O peration     | Version:  2306                                  |
|   \\  /    A nd           | Website:  www.openfoam.com                      |
|    \\/     M anipulation  |                                                 |
\*---------------------------------------------------------------------------*/
FoamFile
{
    version     2.0;
    format      ascii;
    arch        "LSB;label=32;scalar=64";
    class       volScalarField;
    location    "6";
    object      p;
}
// * * * * * * * * * * * * * * * * * * * * * * * * * * * * * * * * * * * * * //

dimensions      [0 2 -2 0 0 0 0];

internalField   nonuniform List<scalar> 
1900
(
0.0542103
0.0299917
0.00960237
-0.00573405
-0.0167486
-0.0272952
-0.0377251
-0.0498728
-0.0624057
-0.07643
0.0249491
0.0167515
0.00543816
-0.00611089
-0.0171301
-0.0273109
-0.0377341
-0.0482351
-0.0597167
-0.0707571
0.0158526
0.0113629
0.00384927
-0.00551592
-0.0155956
-0.0255696
-0.0353429
-0.0448887
-0.0543078
-0.0633826
0.0101477
0.00707486
0.00142632
-0.00622008
-0.015069
-0.0243059
-0.033493
-0.0424024
-0.0509902
-0.0591463
0.00791875
0.00538355
0.000645234
-0.00600236
-0.0139805
-0.0225831
-0.031257
-0.0396798
-0.0477032
-0.0552389
0.0085482
0.00606717
0.00145589
-0.00501
-0.0127497
-0.021055
-0.0293674
-0.0373701
-0.0449396
-0.0520471
0.0119992
0.00905257
0.00377014
-0.00331497
-0.011378
-0.0196688
-0.0277219
-0.0353602
-0.0425759
-0.0494043
0.0186944
0.014398
0.00749838
-0.000973444
-0.00979758
-0.0182276
-0.0260681
-0.0334131
-0.0404124
-0.0471285
0.0288319
0.0207317
0.0102934
-0.000171179
-0.00948329
-0.0176017
-0.0249792
-0.0320388
-0.0389445
-0.0456566
0.0576807
0.035007
0.0152975
0.00123074
-0.00843219
-0.0161347
-0.0233733
-0.0306034
-0.0377753
-0.0446841
-0.0995801
-0.0996138
-0.0996586
-0.0997127
-0.0997728
-0.0998388
-0.09991
-0.0999853
-0.100063
-0.100143
-0.100222
-0.100298
-0.10037
-0.100436
-0.100495
-0.100544
-0.100581
-0.100606
-0.100617
-0.100612
-0.10059
-0.100551
-0.100492
-0.100414
-0.100315
-0.100195
-0.100054
-0.0998913
-0.0997061
-0.0994982
-0.0992672
-0.0990126
-0.0987338
-0.09843
-0.0981
-0.0977427
-0.0973561
-0.0969378
-0.0964845
-0.0959914
-0.0954518
-0.0948569
-0.0941945
-0.0934485
-0.0925985
-0.0916196
-0.0904828
-0.0891556
-0.0876026
-0.0857851
-0.0836606
-0.0811832
-0.0783034
-0.0749687
-0.0711276
-0.0667387
-0.0617729
-0.0562143
-0.0500759
-0.0434032
-0.0362566
-0.0287242
-0.0209171
-0.0129691
-0.00501887
0.00278727
0.0103033
0.0173967
0.0239387
0.0298332
0.0349862
0.0393538
0.0428834
0.0455773
0.047423
0.0484625
0.0487085
0.048233
0.0470607
0.0452798
0.0429125
0.0400534
0.0367092
0.0329752
0.0288296
0.0243725
0.0195301
0.0144326
0.00890243
0.00318946
-0.0995753
-0.099607
-0.0996342
-0.0996756
-0.0997266
-0.0997859
-0.0998519
-0.0999227
-0.099997
-0.100073
-0.100149
-0.100223
-0.100293
-0.100358
-0.100415
-0.100464
-0.100501
-0.100526
-0.100536
-0.100531
-0.10051
-0.10047
-0.100412
-0.100333
-0.100234
-0.100114
-0.0999722
-0.0998079
-0.0996207
-0.0994103
-0.0991762
-0.0989177
-0.0986341
-0.0983244
-0.0979875
-0.0976217
-0.0972252
-0.0967953
-0.0963285
-0.0958201
-0.095264
-0.0946519
-0.0939732
-0.0932147
-0.0923593
-0.0913858
-0.0902692
-0.08898
-0.0874852
-0.0857472
-0.0837208
-0.0813543
-0.0785905
-0.0753686
-0.0716259
-0.0673172
-0.062438
-0.0569724
-0.0509191
-0.0443055
-0.0371955
-0.0296833
-0.0218798
-0.0139231
-0.00595657
0.00187392
0.00940974
0.0165264
0.0230881
0.029002
0.0341632
0.0385433
0.0420807
0.0447852
0.0466371
0.0476879
0.0479413
0.0474815
0.0463205
0.0445629
0.0422132
0.0393871
0.0360678
0.0323778
0.0282648
0.0238605
0.0190646
0.0140276
0.00860438
0.00300801
-0.0994581
-0.0995395
-0.0995849
-0.0996382
-0.0996942
-0.0997555
-0.0998231
-0.0998959
-0.0999726
-0.100051
-0.10013
-0.100208
-0.100282
-0.10035
-0.100411
-0.100463
-0.100504
-0.100532
-0.100546
-0.100544
-0.100524
-0.100487
-0.10043
-0.100352
-0.100254
-0.100134
-0.0999914
-0.0998263
-0.0996382
-0.0994267
-0.0991914
-0.098932
-0.0986479
-0.0983382
-0.0980017
-0.0976371
-0.0972424
-0.0968152
-0.0963518
-0.0958477
-0.0952966
-0.0946906
-0.0940206
-0.0932759
-0.0924433
-0.0915059
-0.0904418
-0.0892229
-0.0878161
-0.0861837
-0.084275
-0.0820284
-0.0793806
-0.0762841
-0.0726687
-0.0684718
-0.0636428
-0.0581889
-0.052125
-0.0454982
-0.0383725
-0.0308459
-0.0230181
-0.0150537
-0.00709545
0.000723654
0.0082426
0.015342
0.0218767
0.0277642
0.0328981
0.0372477
0.0407539
0.0434307
0.0452576
0.0462912
0.0465348
0.0460763
0.0449275
0.0431949
0.0408843
0.0381106
0.0348617
0.0312545
0.0272501
0.0229654
0.0183305
0.0134679
0.00828428
0.00292153
-0.0995397
-0.0996137
-0.099618
-0.099644
-0.0996896
-0.0997517
-0.0998249
-0.0999055
-0.0999906
-0.100078
-0.100166
-0.100251
-0.100333
-0.100408
-0.100475
-0.100532
-0.100577
-0.100609
-0.100626
-0.100625
-0.100607
-0.10057
-0.100513
-0.100435
-0.100336
-0.100213
-0.100068
-0.0999003
-0.0997088
-0.0994938
-0.0992551
-0.0989926
-0.0987059
-0.0983943
-0.0980567
-0.0976919
-0.0972982
-0.0968732
-0.0964138
-0.0959158
-0.095373
-0.0947778
-0.0941216
-0.0933974
-0.0925947
-0.0916987
-0.090688
-0.0895336
-0.0881997
-0.0866543
-0.08484
-0.0826911
-0.0801306
-0.0770874
-0.0735073
-0.0693452
-0.0645511
-0.0591307
-0.0530968
-0.0465004
-0.0394116
-0.0319303
-0.0241749
-0.0162883
-0.00842405
-0.000718681
0.00667304
0.0136304
0.0200188
0.0257562
0.0307477
0.0349599
0.0383437
0.0409125
0.0426549
0.0436249
0.0438355
0.0433687
0.0422467
0.0405664
0.0383456
0.0356855
0.0325896
0.0291571
0.0253712
0.0213273
0.0169866
0.0124426
0.00763563
0.00266353
-0.0992157
-0.0994207
-0.0995113
-0.0996152
-0.0997138
-0.099807
-0.0998995
-0.0999945
-0.100092
-0.10019
-0.100286
-0.100379
-0.100466
-0.100546
-0.100617
-0.100676
-0.100723
-0.100755
-0.100771
-0.10077
-0.10075
-0.10071
-0.100649
-0.100567
-0.100462
-0.100335
-0.100185
-0.100012
-0.0998152
-0.0995954
-0.0993526
-0.099087
-0.0987985
-0.0984862
-0.0981489
-0.0977852
-0.0973939
-0.0969731
-0.0965194
-0.0960288
-0.0954953
-0.0949109
-0.0942664
-0.0935619
-0.0927848
-0.0919182
-0.090942
-0.0898276
-0.0885282
-0.0869997
-0.0851935
-0.0830485
-0.0804882
-0.0774501
-0.0738702
-0.0697065
-0.0649245
-0.0595286
-0.0535403
-0.0470151
-0.0400282
-0.0326835
-0.0251021
-0.017421
-0.00978875
-0.00234472
0.0047687
0.0114321
0.0175274
0.0229732
0.0276914
0.0316482
0.0348096
0.0371875
0.0387842
0.0396489
0.039807
0.0393316
0.0382571
0.0366672
0.0345931
0.0321191
0.029265
0.0261102
0.0226587
0.0189839
0.0150726
0.0109949
0.00672199
0.002329
-0.100047
-0.100069
-0.0999684
-0.0999235
-0.0999341
-0.0999918
-0.10008
-0.10018
-0.100283
-0.100384
-0.100482
-0.100575
-0.10066
-0.100737
-0.100803
-0.100857
-0.100898
-0.100923
-0.100933
-0.100924
-0.100897
-0.10085
-0.100782
-0.100693
-0.100582
-0.100449
-0.100293
-0.100114
-0.0999131
-0.0996893
-0.0994432
-0.0991752
-0.0988851
-0.098572
-0.0982342
-0.0978712
-0.0974833
-0.0970674
-0.0966196
-0.0961358
-0.0956102
-0.0950359
-0.0944007
-0.0936921
-0.0929061
-0.0920276
-0.0910308
-0.0898862
-0.0885514
-0.0869834
-0.0851256
-0.0829199
-0.0802966
-0.0771974
-0.0735665
-0.0693705
-0.0645874
-0.0592258
-0.0533153
-0.046917
-0.0401115
-0.033005
-0.0257175
-0.0183826
-0.0111375
-0.00411643
0.00255386
0.00876143
0.014407
0.0194155
0.0237276
0.0273138
0.0301568
0.0322694
0.0336684
0.0343983
0.0344968
0.0340269
0.0330338
0.0315867
0.0297276
0.0275236
0.0250067
0.0222375
0.0192347
0.0160521
0.012695
0.00921363
0.00560318
0.00191567
-0.0987243
-0.0993689
-0.0995714
-0.0998273
-0.100042
-0.100205
-0.100327
-0.100427
-0.10052
-0.100608
-0.100691
-0.100769
-0.10084
-0.100902
-0.100954
-0.100995
-0.101024
-0.101038
-0.101038
-0.10102
-0.100984
-0.10093
-0.100855
-0.10076
-0.100643
-0.100505
-0.100344
-0.100161
-0.0999572
-0.0997316
-0.0994844
-0.0992158
-0.0989257
-0.0986133
-0.0982763
-0.0979108
-0.0975148
-0.0970887
-0.0966286
-0.0961288
-0.0955819
-0.0949801
-0.0943124
-0.0935693
-0.0927374
-0.0917998
-0.0907297
-0.0894967
-0.0880592
-0.0863731
-0.084385
-0.0820425
-0.0792874
-0.0760711
-0.0723503
-0.0681019
-0.0633168
-0.058013
-0.0522285
-0.0460302
-0.0395022
-0.032751
-0.0258917
-0.0190515
-0.0123537
-0.00591998
0.000143199
0.00573889
0.0107893
0.0152321
0.0190278
0.0221555
0.0246144
0.0264198
0.0276005
0.0281967
0.0282543
0.0278259
0.0269629
0.02572
0.0241452
0.0222886
0.0201897
0.0178909
0.0154213
0.0128157
0.0100932
0.00728428
0.00440122
0.00147536
-0.103432
-0.102053
-0.101424
-0.100991
-0.100764
-0.100674
-0.100662
-0.100687
-0.100726
-0.100771
-0.100821
-0.10087
-0.100917
-0.10096
-0.100997
-0.101025
-0.101044
-0.10105
-0.101041
-0.101016
-0.100974
-0.100914
-0.100835
-0.100738
-0.10062
-0.100482
-0.10032
-0.100132
-0.0999207
-0.0996874
-0.0994311
-0.0991507
-0.0988453
-0.0985134
-0.0981526
-0.0977605
-0.0973341
-0.0968708
-0.0963654
-0.0958116
-0.095201
-0.0945243
-0.0937699
-0.0929252
-0.091974
-0.0908978
-0.0896708
-0.0882628
-0.0866356
-0.0847485
-0.0825558
-0.0800131
-0.077076
-0.0737097
-0.069887
-0.0655979
-0.0608468
-0.0556621
-0.0500887
-0.0441968
-0.0380689
-0.0318075
-0.0255181
-0.0193163
-0.0133083
-0.00759936
-0.00227245
0.00259614
0.00695266
0.0107516
0.0139735
0.0166072
0.0186658
0.0201659
0.0211441
0.0216344
0.0216863
0.0213408
0.0206514
0.0196582
0.0184116
0.0169457
0.015304
0.0135122
0.011606
0.00960302
0.00753231
0.00540535
0.00324545
0.00106054
-0.0975961
-0.0986785
-0.0995146
-0.100126
-0.100442
-0.100561
-0.100596
-0.10061
-0.100626
-0.100656
-0.100695
-0.100735
-0.100775
-0.100813
-0.100846
-0.100873
-0.100891
-0.100902
-0.100902
-0.100884
-0.100846
-0.100787
-0.100706
-0.100603
-0.100476
-0.100326
-0.10015
-0.099946
-0.0997138
-0.099453
-0.0991625
-0.0988411
-0.0984872
-0.0980987
-0.0976727
-0.0972057
-0.0966935
-0.0961313
-0.0955133
-0.0948323
-0.0940794
-0.0932443
-0.0923145
-0.0912763
-0.0901136
-0.0888083
-0.0873374
-0.0856743
-0.0837879
-0.0816453
-0.0792115
-0.0764541
-0.0733428
-0.0698547
-0.0659765
-0.0617122
-0.0570795
-0.0521158
-0.0468715
-0.0414157
-0.0358258
-0.0301934
-0.0246086
-0.0191679
-0.0139548
-0.00905263
-0.00452367
-0.000424845
0.00321286
0.00636101
0.00901725
0.0111779
0.012865
0.0140937
0.0149039
0.0153218
0.0153969
0.0151588
0.0146603
0.0139283
0.0130141
0.0119369
0.0107437
0.00944379
0.00807915
0.00664973
0.00519401
0.00370406
0.00221531
0.000710495
-0.120247
-0.105345
-0.10342
-0.101944
-0.101029
-0.1006
-0.100425
-0.100364
-0.100347
-0.100352
-0.100392
-0.100453
-0.100517
-0.100578
-0.100634
-0.100681
-0.100719
-0.100742
-0.100747
-0.100728
-0.100682
-0.100608
-0.100503
-0.100368
-0.100202
-0.100005
-0.0997752
-0.0995104
-0.0992074
-0.0988645
-0.0984802
-0.0980527
-0.0975805
-0.0970613
-0.096492
-0.0958687
-0.0951868
-0.0944412
-0.0936257
-0.0927334
-0.0917558
-0.0906831
-0.0895042
-0.0882059
-0.0867728
-0.0851873
-0.0834301
-0.081481
-0.0793177
-0.0769174
-0.074258
-0.0713202
-0.0680887
-0.0645562
-0.0607242
-0.056607
-0.0522301
-0.0476327
-0.0428629
-0.0379818
-0.0330548
-0.0281571
-0.0233606
-0.0187401
-0.014358
-0.0102755
-0.00653567
-0.00317906
-0.000219939
0.00232665
0.00446888
0.00620736
0.00756769
0.00856291
0.00923294
0.00959747
0.00970459
0.00957404
0.00925765
0.00877035
0.00816449
0.00744562
0.00666435
0.00581384
0.0049431
0.004032
0.00313043
0.00220589
0.0013116
0.000398911
-0.0878467
-0.0942859
-0.0967926
-0.0976403
-0.0980934
-0.0985007
-0.0988779
-0.0991958
-0.099471
-0.0997106
-0.0999173
-0.100094
-0.100244
-0.100371
-0.100479
-0.100565
-0.100628
-0.100661
-0.100661
-0.100623
-0.100544
-0.100421
-0.100253
-0.10004
-0.0997818
-0.0994779
-0.0991277
-0.0987295
-0.0982812
-0.0977814
-0.0972286
-0.0966212
-0.0959564
-0.0952313
-0.0944428
-0.0935877
-0.092662
-0.091661
-0.0905793
-0.0894106
-0.0881479
-0.086783
-0.0853069
-0.0837094
-0.0819791
-0.0801041
-0.078072
-0.0758701
-0.0734855
-0.0709058
-0.0681199
-0.0651198
-0.0619017
-0.058468
-0.054828
-0.0509995
-0.0470086
-0.0428903
-0.0386862
-0.0344452
-0.0302201
-0.0260695
-0.0220492
-0.0182159
-0.014616
-0.0112937
-0.00827646
-0.00558838
-0.00323392
-0.00121872
0.000470123
0.00183745
0.00290918
0.00369857
0.00424371
0.00456172
0.00469758
0.00466549
0.00451364
0.00424864
0.00392063
0.00352453
0.00311235
0.0026629
0.00223135
0.00177617
0.00135981
0.000917828
0.000526984
9.55997e-05
-0.0819848
-0.0897545
-0.0937317
-0.0951544
-0.0955908
-0.0959331
-0.0964385
-0.0970633
-0.0976943
-0.0982579
-0.0987295
-0.0991169
-0.0994379
-0.0997074
-0.0999327
-0.100115
-0.100249
-0.10033
-0.100352
-0.10031
-0.100201
-0.100023
-0.0997753
-0.0994588
-0.0990745
-0.0986237
-0.0981075
-0.0975262
-0.0968802
-0.0961695
-0.0953937
-0.0945521
-0.0936435
-0.0926663
-0.0916186
-0.0904979
-0.0893014
-0.0880257
-0.0866665
-0.0852193
-0.0836791
-0.0820402
-0.0802967
-0.0784423
-0.0764706
-0.0743749
-0.0721488
-0.069786
-0.0672806
-0.0646274
-0.0618226
-0.0588652
-0.0557576
-0.0525071
-0.0491254
-0.045631
-0.0420483
-0.0384086
-0.0347487
-0.0311103
-0.027536
-0.0240697
-0.0207526
-0.0176248
-0.0147189
-0.0120633
-0.00967546
-0.00756857
-0.00574268
-0.00419477
-0.00290742
-0.00186811
-0.0010515
-0.000441263
-3.82855e-06
0.000279263
0.00044718
0.000513775
0.000518926
0.000465403
0.000393729
0.000293097
0.000209041
0.000112482
5.77948e-05
-1.18322e-05
-2.5818e-05
-8.02292e-05
-7.16063e-05
-0.000147311
-0.0718281
-0.0790036
-0.0843468
-0.0878463
-0.0900047
-0.0914766
-0.0927097
-0.0938839
-0.0950122
-0.0960495
-0.0969575
-0.097726
-0.0983654
-0.0988927
-0.0993219
-0.09966
-0.0999079
-0.100063
-0.100122
-0.100081
-0.0999405
-0.0996995
-0.0993602
-0.0989254
-0.0983985
-0.0977832
-0.0970832
-0.0963017
-0.0954416
-0.0945052
-0.093494
-0.0924093
-0.0912515
-0.0900204
-0.0887151
-0.0873343
-0.085876
-0.0843379
-0.0827173
-0.0810112
-0.0792167
-0.0773306
-0.0753499
-0.0732717
-0.0710938
-0.0688142
-0.0664314
-0.0639447
-0.0613542
-0.0586609
-0.0558676
-0.0529786
-0.0500001
-0.046941
-0.0438139
-0.0406354
-0.0374278
-0.0342194
-0.0310433
-0.0279363
-0.0249352
-0.0220741
-0.0193819
-0.0168811
-0.0145882
-0.0125158
-0.0106729
-0.00906656
-0.0076952
-0.0065487
-0.00560351
-0.00483573
-0.00421832
-0.00373218
-0.00335224
-0.00306058
-0.00282764
-0.00263826
-0.00246547
-0.00230731
-0.00214112
-0.00197797
-0.00178994
-0.00160265
-0.00137554
-0.00116122
-0.000895599
-0.000681319
-0.000403359
-0.000256087
-0.0666625
-0.0732904
-0.0787723
-0.0830049
-0.0861117
-0.0884021
-0.0902163
-0.0917929
-0.0932397
-0.0945745
-0.0957771
-0.096827
-0.0977177
-0.098455
-0.0990494
-0.0995093
-0.0998391
-0.100039
-0.100108
-0.100045
-0.0998504
-0.0995262
-0.0990766
-0.098507
-0.0978233
-0.097032
-0.0961392
-0.0951507
-0.0940718
-0.092907
-0.0916602
-0.0903343
-0.0889312
-0.0874518
-0.0858963
-0.0842641
-0.0825542
-0.0807652
-0.0788959
-0.0769449
-0.074911
-0.0727937
-0.0705928
-0.0683087
-0.0659428
-0.0634973
-0.0609755
-0.058382
-0.0557223
-0.0530033
-0.050233
-0.0474197
-0.0445725
-0.0417014
-0.0388178
-0.0359362
-0.0330751
-0.0302584
-0.0275162
-0.024883
-0.0223938
-0.0200779
-0.0179527
-0.0160215
-0.0142774
-0.0127122
-0.0113248
-0.0101205
-0.00910104
-0.00825479
-0.00755326
-0.0069604
-0.00644428
-0.005988
-0.00558111
-0.00521653
-0.00487906
-0.00455606
-0.00423063
-0.00389829
-0.00354944
-0.00319155
-0.00281702
-0.002442
-0.00204962
-0.00166983
-0.00126617
-0.000910453
-0.000515146
-0.000265513
-0.0622041
-0.0684905
-0.0739703
-0.078549
-0.0822347
-0.0851609
-0.0875368
-0.0895615
-0.0913671
-0.0930122
-0.0945042
-0.0958299
-0.0969759
-0.0979373
-0.0987166
-0.0993191
-0.0997494
-0.10001
-0.100101
-0.100024
-0.099782
-0.0993793
-0.0988231
-0.0981219
-0.0972849
-0.0963212
-0.0952396
-0.0940481
-0.0927545
-0.091366
-0.0898887
-0.0883277
-0.0866864
-0.084967
-0.0831706
-0.0812975
-0.0793475
-0.0773202
-0.0752156
-0.0730339
-0.0707761
-0.0684438
-0.0660399
-0.063568
-0.0610331
-0.0584413
-0.0558003
-0.0531196
-0.0504103
-0.0476852
-0.0449573
-0.0422394
-0.0395426
-0.0368771
-0.0342527
-0.0316799
-0.0291706
-0.0267401
-0.0244102
-0.0222119
-0.0201799
-0.0183427
-0.0167107
-0.0152672
-0.0139767
-0.0128075
-0.0117483
-0.0108066
-0.00999117
-0.00929954
-0.00870821
-0.00817661
-0.00766683
-0.00716251
-0.00666504
-0.00618281
-0.00572103
-0.00528068
-0.0048552
-0.00443894
-0.00402221
-0.00360267
-0.00317422
-0.00274202
-0.00229994
-0.00186073
-0.00141292
-0.000992863
-0.000564269
-0.00025569
-0.0586736
-0.0647647
-0.0702347
-0.0750063
-0.0790569
-0.0824405
-0.0852782
-0.0877151
-0.0898712
-0.091818
-0.0935813
-0.0951588
-0.0965378
-0.0977075
-0.0986627
-0.0994033
-0.0999307
-0.100247
-0.100354
-0.100254
-0.0999525
-0.0994579
-0.0987811
-0.0979352
-0.0969336
-0.0957888
-0.0945117
-0.0931127
-0.091602
-0.0899889
-0.0882819
-0.086488
-0.0846123
-0.0826588
-0.0806296
-0.078526
-0.0763489
-0.0740989
-0.0717772
-0.0693856
-0.0669272
-0.0644063
-0.0618286
-0.0592017
-0.0565341
-0.0538358
-0.051118
-0.0483938
-0.0456793
-0.042993
-0.0403536
-0.0377763
-0.0352728
-0.0328506
-0.0305152
-0.0282716
-0.0261238
-0.0240747
-0.0221295
-0.0203104
-0.0186479
-0.0171688
-0.0158859
-0.0147738
-0.0137809
-0.0128615
-0.0119955
-0.0111851
-0.0104334
-0.00974766
-0.00913389
-0.00857612
-0.00804766
-0.00753511
-0.00703762
-0.00654598
-0.00605758
-0.00557342
-0.00509343
-0.00461804
-0.00414752
-0.00368404
-0.00322661
-0.00277523
-0.00232455
-0.00187731
-0.00143006
-0.000998168
-0.000574754
-0.000252595
-0.0558441
-0.0618404
-0.0673121
-0.0721937
-0.0764646
-0.0801575
-0.0833492
-0.0861384
-0.0886178
-0.0908534
-0.0928773
-0.0946947
-0.0962956
-0.0976658
-0.0987938
-0.0996728
-0.1003
-0.100673
-0.100796
-0.100672
-0.100308
-0.0997146
-0.0989089
-0.0979104
-0.0967384
-0.0954092
-0.0939365
-0.0923331
-0.0906115
-0.0887833
-0.0868592
-0.0848482
-0.0827574
-0.0805923
-0.0783566
-0.0760527
-0.0736829
-0.0712489
-0.0687534
-0.0661998
-0.0635932
-0.0609403
-0.0582501
-0.0555339
-0.0528044
-0.0500753
-0.0473597
-0.0446711
-0.042028
-0.0394525
-0.0369645
-0.0345777
-0.0322995
-0.0301312
-0.0280712
-0.0261173
-0.0242702
-0.02253
-0.0208972
-0.0193773
-0.017986
-0.0167361
-0.0156195
-0.0146202
-0.0137186
-0.012892
-0.0121232
-0.0114073
-0.0107516
-0.0101293
-0.00951001
-0.00888158
-0.00825304
-0.00764409
-0.007064
-0.00651816
-0.00600831
-0.00552668
-0.00506182
-0.00460554
-0.00415242
-0.00370108
-0.0032506
-0.00280121
-0.00235236
-0.00190506
-0.00145945
-0.00102409
-0.000611408
-0.000249261
-0.0535225
-0.0595037
-0.0649889
-0.0699339
-0.0743393
-0.0782421
-0.0817029
-0.0847888
-0.0875637
-0.0900772
-0.092358
-0.0944128
-0.0962329
-0.0978021
-0.0991033
-0.100123
-0.100852
-0.101287
-0.101428
-0.101281
-0.100854
-0.100163
-0.0992288
-0.0980786
-0.0967382
-0.0952293
-0.0935713
-0.0917817
-0.0898764
-0.0878693
-0.0857726
-0.0835962
-0.0813482
-0.0790344
-0.0766592
-0.0742259
-0.0717373
-0.0691964
-0.0666067
-0.0639729
-0.0613009
-0.0585992
-0.0558782
-0.0531514
-0.0504345
-0.0477442
-0.0450946
-0.0425011
-0.0399861
-0.0375686
-0.0352609
-0.0330671
-0.0309851
-0.0290095
-0.0271307
-0.0253422
-0.0236475
-0.0220616
-0.0206062
-0.0192951
-0.0181292
-0.0170951
-0.0161296
-0.0151726
-0.0142034
-0.0132351
-0.0123069
-0.0114645
-0.0107073
-0.0100301
-0.00941469
-0.00882158
-0.00824198
-0.0076733
-0.0071191
-0.00658775
-0.00607937
-0.00558869
-0.00511039
-0.00464066
-0.00417731
-0.00371947
-0.00326626
-0.00281652
-0.00236971
-0.00192607
-0.00148627
-0.00105726
-0.000650938
-0.000251646
-0.0520472
-0.0580017
-0.0634609
-0.0684165
-0.0728933
-0.0769325
-0.080583
-0.0838925
-0.0869035
-0.0896499
-0.0921517
-0.0944131
-0.0964244
-0.0981673
-0.0996202
-0.100763
-0.101582
-0.102068
-0.102219
-0.102042
-0.101553
-0.100772
-0.0997253
-0.0984385
-0.0969411
-0.0952644
-0.0934381
-0.0914877
-0.0894347
-0.0872958
-0.0850844
-0.0828102
-0.0804804
-0.0780997
-0.0756715
-0.0731983
-0.070682
-0.068125
-0.0655301
-0.0629015
-0.0602447
-0.0575675
-0.0548797
-0.0521943
-0.0495271
-0.0468976
-0.0443291
-0.0418472
-0.039473
-0.037221
-0.0350972
-0.0330967
-0.0312033
-0.0293935
-0.0276453
-0.0259321
-0.0242455
-0.0225993
-0.021025
-0.0195609
-0.0182414
-0.0170605
-0.0159978
-0.0150178
-0.0140921
-0.0132079
-0.012365
-0.0115729
-0.0108435
-0.0101679
-0.009528
-0.00890946
-0.0083073
-0.00772352
-0.0071619
-0.0066242
-0.00610877
-0.00561226
-0.00513003
-0.00465791
-0.00419296
-0.00373359
-0.00327908
-0.00282928
-0.00238433
-0.00194455
-0.00151057
-0.00108683
-0.00067849
-0.000256888
-0.0511645
-0.0571412
-0.0626059
-0.0675852
-0.0721192
-0.0762509
-0.0800238
-0.0834812
-0.0866592
-0.0895793
-0.0922492
-0.0946647
-0.0968118
-0.0986708
-0.10022
-0.101439
-0.102313
-0.102833
-0.102999
-0.10282
-0.102313
-0.101503
-0.100418
-0.099092
-0.0975569
-0.0958448
-0.0939852
-0.0920041
-0.0899236
-0.0877616
-0.0855319
-0.0832448
-0.0809073
-0.0785243
-0.0760992
-0.073634
-0.0711305
-0.0685906
-0.0660166
-0.0634117
-0.0607806
-0.0581299
-0.055468
-0.0528062
-0.0501581
-0.0475401
-0.0449706
-0.0424688
-0.0400526
-0.0377365
-0.0355294
-0.0334325
-0.0314409
-0.0295489
-0.0277262
-0.0259636
-0.0242618
-0.0226341
-0.0211042
-0.019694
-0.0184168
-0.0172667
-0.0162111
-0.0152126
-0.0142511
-0.0133256
-0.012449
-0.0116352
-0.0108877
-0.0101979
-0.00954952
-0.00892751
-0.0083261
-0.00774504
-0.00718603
-0.00665004
-0.0061351
-0.00563741
-0.00515286
-0.00467812
-0.00421084
-0.00374961
-0.00329372
-0.00284314
-0.00239857
-0.00196111
-0.00153165
-0.00111105
-0.000697582
-0.000265039
)
;

boundaryField
{
    fixedWalls
    {
        type            zeroGradient;
    }
    inflowWall
    {
        type            zeroGradient;
    }
    outflowWall
    {
        type            fixedValue;
        value           uniform 0;
    }
    frontAndBack
    {
        type            empty;
    }
}


// ************************************************************************* //
