/*--------------------------------*- C++ -*----------------------------------*\
| =========                 |                                                 |
| \\      /  F ield         | OpenFOAM: The Open Source CFD Toolbox           |
|  \\    /   O peration     | Version:  2306                                  |
|   \\  /    A nd           | Website:  www.openfoam.com                      |
|    \\/     M anipulation  |                                                 |
\*---------------------------------------------------------------------------*/
FoamFile
{
    version     2.0;
    format      ascii;
    arch        "LSB;label=32;scalar=64";
    class       volVectorField;
    location    "6";
    object      U;
}
// * * * * * * * * * * * * * * * * * * * * * * * * * * * * * * * * * * * * * //

dimensions      [0 1 -1 0 0 0 0];

internalField   nonuniform List<vector> 
1900
(
(0.984275 0.00728994 0)
(0.961757 0.0216836 0)
(0.952326 0.0181779 0)
(0.918696 0.0253035 0)
(0.903406 0.0154452 0)
(0.863052 0.0257491 0)
(0.852236 0.0116066 0)
(0.81192 0.0267288 0)
(0.809588 0.00457755 0)
(0.77038 0.0259856 0)
(1.00256 0.0115598 0)
(1.00446 0.0258629 0)
(1.01943 0.028968 0)
(1.02197 0.0304612 0)
(1.03487 0.0280128 0)
(1.03395 0.0284295 0)
(1.04403 0.0257997 0)
(1.04276 0.025115 0)
(1.05114 0.0206978 0)
(1.05221 0.0162477 0)
(1.00048 0.00388788 0)
(1.00419 0.0111577 0)
(1.01255 0.0140044 0)
(1.02112 0.015795 0)
(1.03153 0.0147245 0)
(1.04053 0.0144358 0)
(1.04997 0.0123992 0)
(1.05837 0.0109613 0)
(1.06684 0.0073531 0)
(1.07467 0.00320779 0)
(1.00007 0.00207837 0)
(1.00313 0.00584652 0)
(1.00888 0.00806137 0)
(1.01648 0.00904456 0)
(1.02527 0.00856929 0)
(1.03431 0.00747437 0)
(1.04323 0.00570042 0)
(1.05179 0.00354488 0)
(1.05996 0.000727344 0)
(1.06763 -0.00277743 0)
(1.00003 0.000425879 0)
(1.00261 0.00117652 0)
(1.00738 0.00144212 0)
(1.01402 0.00116501 0)
(1.02191 0.000270416 0)
(1.03035 -0.00108822 0)
(1.03879 -0.00287623 0)
(1.04691 -0.00506955 0)
(1.05459 -0.00771582 0)
(1.06174 -0.0108744 0)
(1.00003 -0.00105915 0)
(1.00255 -0.00302228 0)
(1.0072 -0.00474081 0)
(1.01366 -0.00617504 0)
(1.02133 -0.00747047 0)
(1.02949 -0.00882734 0)
(1.03759 -0.0104314 0)
(1.04533 -0.0123925 0)
(1.0526 -0.0147511 0)
(1.05938 -0.0174776 0)
(1.00003 -0.00270899 0)
(1.00303 -0.00742723 0)
(1.00836 -0.0110498 0)
(1.01546 -0.0134819 0)
(1.02347 -0.0151008 0)
(1.03164 -0.0164557 0)
(1.03951 -0.017951 0)
(1.04691 -0.0197646 0)
(1.05384 -0.0218892 0)
(1.06033 -0.0242351 0)
(1.00004 -0.0047676 0)
(1.00441 -0.012228 0)
(1.01138 -0.0169077 0)
(1.0198 -0.0193338 0)
(1.0284 -0.0206543 0)
(1.03641 -0.0218178 0)
(1.04362 -0.0232725 0)
(1.0501 -0.0250451 0)
(1.05598 -0.0269941 0)
(1.0613 -0.0289858 0)
(1.00006 -0.0121175 0)
(1.00722 -0.0259478 0)
(1.01558 -0.0314222 0)
(1.02288 -0.0325669 0)
(1.02795 -0.0326458 0)
(1.03075 -0.0330149 0)
(1.03177 -0.0337863 0)
(1.03148 -0.0346966 0)
(1.03008 -0.0355301 0)
(1.0276 -0.0362271 0)
(0.980777 -0.00916314 0)
(0.964587 -0.0188202 0)
(0.945464 -0.0220437 0)
(0.920801 -0.0221815 0)
(0.892021 -0.0217334 0)
(0.861719 -0.0215698 0)
(0.831496 -0.0215986 0)
(0.80183 -0.0215844 0)
(0.772655 -0.021403 0)
(0.743726 -0.0210698 0)
(0.000207237 -0.000109948 0)
(0.000343528 -2.06177e-05 0)
(7.80543e-05 2.81834e-05 0)
(-0.000409498 5.75501e-05 0)
(-0.0010605 7.56065e-05 0)
(-0.0018325 9.31252e-05 0)
(-0.00271211 0.000113612 0)
(-0.00369449 0.000136028 0)
(-0.00477447 0.000159165 0)
(-0.00594579 0.000182321 0)
(-0.00720145 0.000205072 0)
(-0.00853397 0.000227115 0)
(-0.00993578 0.00024821 0)
(-0.0113993 0.000268157 0)
(-0.0129174 0.000286808 0)
(-0.014483 0.00030407 0)
(-0.0160897 0.000319899 0)
(-0.0177314 0.00033427 0)
(-0.0194024 0.000347155 0)
(-0.0210979 0.000358558 0)
(-0.0228137 0.000368516 0)
(-0.0245463 0.000377099 0)
(-0.0262935 0.000384407 0)
(-0.0280541 0.000390552 0)
(-0.029828 0.000395655 0)
(-0.0316165 0.000399877 0)
(-0.0334221 0.000403447 0)
(-0.035249 0.000406618 0)
(-0.037103 0.000409633 0)
(-0.0389911 0.000412708 0)
(-0.0409222 0.000415977 0)
(-0.0429063 0.000419434 0)
(-0.0449545 0.000422943 0)
(-0.0470792 0.000426399 0)
(-0.0492945 0.000430003 0)
(-0.0516169 0.000434575 0)
(-0.0540668 0.0004419 0)
(-0.0566691 0.000455284 0)
(-0.0594554 0.000480202 0)
(-0.0624657 0.000525032 0)
(-0.0657505 0.00060194 0)
(-0.069373 0.00072748 0)
(-0.0734099 0.000921664 0)
(-0.0779486 0.00120459 0)
(-0.0830788 0.00159149 0)
(-0.0888794 0.00208785 0)
(-0.0954022 0.00268405 0)
(-0.102655 0.00335303 0)
(-0.110585 0.00404942 0)
(-0.11907 0.00471045 0)
(-0.127902 0.00526286 0)
(-0.136801 0.0056408 0)
(-0.14544 0.00579744 0)
(-0.153458 0.00571257 0)
(-0.16049 0.00539204 0)
(-0.1662 0.00489307 0)
(-0.170325 0.00428172 0)
(-0.172606 0.00352484 0)
(-0.172857 0.00261119 0)
(-0.171004 0.00156552 0)
(-0.167012 0.000453571 0)
(-0.160878 -0.00067658 0)
(-0.152651 -0.00179438 0)
(-0.142483 -0.00284621 0)
(-0.130487 -0.00383069 0)
(-0.116877 -0.00470749 0)
(-0.101852 -0.00545134 0)
(-0.0855944 -0.00608888 0)
(-0.0684489 -0.00656714 0)
(-0.0504317 -0.00692458 0)
(-0.0321842 -0.00710709 0)
(-0.0133323 -0.00722847 0)
(0.00510769 -0.00719044 0)
(0.0240209 -0.00712058 0)
(0.0418681 -0.00689084 0)
(0.060192 -0.00667861 0)
(0.0768528 -0.00631166 0)
(0.0941428 -0.00601904 0)
(0.109196 -0.00557596 0)
(0.125235 -0.00526626 0)
(0.138445 -0.00480586 0)
(0.153256 -0.00453835 0)
(0.164533 -0.004113 0)
(0.178405 -0.00393875 0)
(0.187722 -0.00359449 0)
(0.201302 -0.00355495 0)
(0.208508 -0.00332495 0)
(0.223066 -0.00349239 0)
(0.227469 -0.00338065 0)
(0.245447 -0.00409895 0)
(6.02986e-05 -0.000515751 0)
(-0.000531972 0.000148379 0)
(-0.00203639 0.000721784 0)
(-0.0039596 0.00112636 0)
(-0.00626813 0.0014056 0)
(-0.00888869 0.00162779 0)
(-0.0117837 0.001829 0)
(-0.0149248 0.00201721 0)
(-0.0182827 0.00219239 0)
(-0.0218294 0.00235358 0)
(-0.0255382 0.00249996 0)
(-0.0293836 0.00263127 0)
(-0.0333413 0.00274774 0)
(-0.037389 0.00284987 0)
(-0.0415064 0.00293842 0)
(-0.0456755 0.00301428 0)
(-0.0498808 0.00307843 0)
(-0.054109 0.00313186 0)
(-0.0583494 0.00317558 0)
(-0.0625935 0.00321103 0)
(-0.0668356 0.00323993 0)
(-0.0710731 0.00326425 0)
(-0.0753059 0.0032861 0)
(-0.0795369 0.00330774 0)
(-0.0837718 0.00333151 0)
(-0.0880188 0.00336003 0)
(-0.0922894 0.00339621 0)
(-0.0965976 0.00344312 0)
(-0.10096 0.00350378 0)
(-0.105396 0.00358121 0)
(-0.109927 0.00367828 0)
(-0.114575 0.00379763 0)
(-0.119364 0.00394192 0)
(-0.124317 0.00411429 0)
(-0.129459 0.00431902 0)
(-0.134813 0.00456171 0)
(-0.140402 0.00484927 0)
(-0.146246 0.00519011 0)
(-0.152361 0.00559413 0)
(-0.158757 0.00607233 0)
(-0.165431 0.00663605 0)
(-0.17237 0.00729532 0)
(-0.179545 0.00805494 0)
(-0.186905 0.00890784 0)
(-0.19437 0.00982817 0)
(-0.201826 0.0107691 0)
(-0.209123 0.0116616 0)
(-0.216078 0.012422 0)
(-0.222479 0.0129598 0)
(-0.228097 0.0131823 0)
(-0.232676 0.0129981 0)
(-0.23596 0.0123499 0)
(-0.237695 0.0112192 0)
(-0.237653 0.00961874 0)
(-0.235592 0.00752408 0)
(-0.231371 0.00498967 0)
(-0.224997 0.0020909 0)
(-0.216361 -0.00103414 0)
(-0.205457 -0.00433331 0)
(-0.192299 -0.00768818 0)
(-0.17688 -0.0110394 0)
(-0.159404 -0.0142759 0)
(-0.13985 -0.0173641 0)
(-0.118599 -0.0201286 0)
(-0.0956368 -0.0226492 0)
(-0.0713108 -0.0248495 0)
(-0.0458979 -0.0267116 0)
(-0.0193315 -0.0282624 0)
(0.00749658 -0.0294023 0)
(0.0355895 -0.0302507 0)
(0.0627982 -0.0306725 0)
(0.0915125 -0.0308894 0)
(0.118102 -0.030669 0)
(0.14679 -0.0303633 0)
(0.172024 -0.0296192 0)
(0.20015 -0.0289191 0)
(0.223401 -0.0277929 0)
(0.250668 -0.0268538 0)
(0.271441 -0.0255002 0)
(0.297815 -0.0244818 0)
(0.315734 -0.023049 0)
(0.341458 -0.0221044 0)
(0.356233 -0.0207253 0)
(0.381838 -0.0199985 0)
(0.393227 -0.0187892 0)
(0.419539 -0.0184227 0)
(0.427313 -0.0174841 0)
(0.455433 -0.0176563 0)
(0.459362 -0.0171008 0)
(0.490471 -0.0181387 0)
(-0.000162344 0.000431748 0)
(-0.00195781 0.00230618 0)
(-0.00545125 0.00352981 0)
(-0.0094205 0.00434968 0)
(-0.0138301 0.00498969 0)
(-0.018578 0.00555623 0)
(-0.0236221 0.00607491 0)
(-0.0289224 0.00654572 0)
(-0.0344253 0.0069641 0)
(-0.0400785 0.00732845 0)
(-0.0458348 0.00763873 0)
(-0.0516517 0.00789698 0)
(-0.0574922 0.00810673 0)
(-0.0633252 0.00827219 0)
(-0.0691249 0.00839799 0)
(-0.0748706 0.008489 0)
(-0.0805464 0.00855022 0)
(-0.0861403 0.00858676 0)
(-0.0916436 0.00860396 0)
(-0.0970511 0.00860712 0)
(-0.102361 0.00860163 0)
(-0.107574 0.00859299 0)
(-0.112693 0.00858673 0)
(-0.117725 0.00858833 0)
(-0.122675 0.00860315 0)
(-0.127553 0.0086366 0)
(-0.132367 0.00869427 0)
(-0.137125 0.00878162 0)
(-0.141838 0.00890333 0)
(-0.146513 0.00906346 0)
(-0.151156 0.00926508 0)
(-0.15577 0.00951006 0)
(-0.160356 0.00979907 0)
(-0.164907 0.0101319 0)
(-0.169413 0.0105079 0)
(-0.173859 0.0109261 0)
(-0.178221 0.0113841 0)
(-0.18247 0.0118776 0)
(-0.186564 0.0124012 0)
(-0.19045 0.0129469 0)
(-0.194064 0.0135042 0)
(-0.197325 0.0140602 0)
(-0.200143 0.0145989 0)
(-0.202413 0.0150951 0)
(-0.204014 0.0154996 0)
(-0.204814 0.0157512 0)
(-0.204662 0.0157702 0)
(-0.203403 0.015471 0)
(-0.20089 0.0147718 0)
(-0.196998 0.0136025 0)
(-0.191577 0.0118592 0)
(-0.184518 0.00949888 0)
(-0.175705 0.00649072 0)
(-0.165226 0.00288689 0)
(-0.152887 -0.00126748 0)
(-0.138832 -0.00591128 0)
(-0.122914 -0.0110247 0)
(-0.105214 -0.016366 0)
(-0.085662 -0.0218508 0)
(-0.0646866 -0.0272577 0)
(-0.0419639 -0.0325648 0)
(-0.0181403 -0.0375988 0)
(0.00726655 -0.0423134 0)
(0.0336343 -0.0465292 0)
(0.061048 -0.050303 0)
(0.0892622 -0.0534876 0)
(0.117681 -0.0561517 0)
(0.147172 -0.0582391 0)
(0.175749 -0.0597312 0)
(0.205912 -0.0607002 0)
(0.233815 -0.0610745 0)
(0.264065 -0.0610636 0)
(0.290544 -0.060445 0)
(0.320379 -0.0596058 0)
(0.344826 -0.05819 0)
(0.373924 -0.0567407 0)
(0.395861 -0.0547592 0)
(0.424101 -0.0529484 0)
(0.443183 -0.0506452 0)
(0.470649 -0.0487243 0)
(0.48665 -0.0463307 0)
(0.513631 -0.0445371 0)
(0.526418 -0.0422604 0)
(0.553386 -0.040813 0)
(0.562902 -0.0388355 0)
(0.590493 -0.0379465 0)
(0.596736 -0.0364429 0)
(0.625715 -0.0363441 0)
(0.628701 -0.0355107 0)
(0.659879 -0.03646 0)
(-0.000922615 0.00123036 0)
(-0.00480364 0.00512598 0)
(-0.0107287 0.00760914 0)
(-0.0168028 0.00927532 0)
(-0.0232032 0.0105144 0)
(-0.0298791 0.0114983 0)
(-0.0367449 0.0123002 0)
(-0.043703 0.0129572 0)
(-0.0506631 0.0134835 0)
(-0.0575533 0.0138911 0)
(-0.0643185 0.0141924 0)
(-0.070915 0.0143994 0)
(-0.0773106 0.0145236 0)
(-0.083483 0.0145765 0)
(-0.0894171 0.0145692 0)
(-0.0951037 0.0145123 0)
(-0.100539 0.0144157 0)
(-0.10572 0.0142883 0)
(-0.110651 0.0141388 0)
(-0.115333 0.0139753 0)
(-0.119772 0.0138055 0)
(-0.123974 0.0136365 0)
(-0.127942 0.013475 0)
(-0.131683 0.013327 0)
(-0.1352 0.0131976 0)
(-0.138496 0.0130911 0)
(-0.14157 0.0130119 0)
(-0.144422 0.0129638 0)
(-0.147046 0.0129486 0)
(-0.149437 0.0129669 0)
(-0.151581 0.0130174 0)
(-0.153466 0.013097 0)
(-0.155069 0.0132003 0)
(-0.156365 0.0133203 0)
(-0.157323 0.0134496 0)
(-0.157907 0.0135814 0)
(-0.158075 0.0137067 0)
(-0.157776 0.0138129 0)
(-0.156956 0.0138861 0)
(-0.15555 0.0139105 0)
(-0.15348 0.0138667 0)
(-0.150658 0.0137339 0)
(-0.14699 0.0134923 0)
(-0.142403 0.0131248 0)
(-0.136781 0.0125595 0)
(-0.130043 0.0117349 0)
(-0.122075 0.0105727 0)
(-0.112787 0.00898368 0)
(-0.102075 0.00686386 0)
(-0.0900198 0.00417499 0)
(-0.0764463 0.00087034 0)
(-0.0614799 -0.0030585 0)
(-0.0449575 -0.00767623 0)
(-0.02718 -0.0129275 0)
(-0.00769231 -0.0187637 0)
(0.0128955 -0.0249773 0)
(0.0350706 -0.0314755 0)
(0.0580959 -0.0380713 0)
(0.0827678 -0.044776 0)
(0.10798 -0.0513227 0)
(0.134705 -0.0577283 0)
(0.161757 -0.0637292 0)
(0.190007 -0.069326 0)
(0.218438 -0.0742506 0)
(0.247558 -0.0786751 0)
(0.276914 -0.0823032 0)
(0.306147 -0.0852959 0)
(0.335857 -0.0874607 0)
(0.36445 -0.0889271 0)
(0.393984 -0.0896406 0)
(0.42123 -0.0896595 0)
(0.450124 -0.0890756 0)
(0.475421 -0.0878409 0)
(0.503338 -0.0862002 0)
(0.526215 -0.0839818 0)
(0.552977 -0.0815896 0)
(0.573105 -0.0786998 0)
(0.598703 -0.0758884 0)
(0.615889 -0.0726476 0)
(0.640479 -0.0697446 0)
(0.654642 -0.0664535 0)
(0.678533 -0.0637618 0)
(0.689678 -0.0606871 0)
(0.713308 -0.0584784 0)
(0.721498 -0.0558529 0)
(0.74541 -0.054377 0)
(0.750737 -0.0524152 0)
(0.775557 -0.0519188 0)
(0.778107 -0.0508341 0)
(0.804512 -0.0515651 0)
(-0.00127977 0.00693735 0)
(-0.00687349 0.0137998 0)
(-0.0155033 0.0164352 0)
(-0.0240034 0.0175998 0)
(-0.0325138 0.0184374 0)
(-0.0407875 0.0192219 0)
(-0.0486961 0.0199044 0)
(-0.0561981 0.020408 0)
(-0.0632637 0.0207137 0)
(-0.0698606 0.0208477 0)
(-0.0759709 0.0208385 0)
(-0.0815891 0.0207111 0)
(-0.0867191 0.0204877 0)
(-0.0913715 0.0201879 0)
(-0.0955609 0.0198284 0)
(-0.099305 0.019424 0)
(-0.102622 0.0189871 0)
(-0.105532 0.0185278 0)
(-0.108049 0.0180543 0)
(-0.110192 0.017575 0)
(-0.111973 0.0170971 0)
(-0.113404 0.016627 0)
(-0.114496 0.0161697 0)
(-0.115255 0.0157293 0)
(-0.115684 0.0153083 0)
(-0.115782 0.0149076 0)
(-0.115545 0.014528 0)
(-0.114967 0.0141716 0)
(-0.114035 0.0138358 0)
(-0.112735 0.0135169 0)
(-0.111047 0.0132094 0)
(-0.10895 0.0129058 0)
(-0.106415 0.0125961 0)
(-0.103409 0.0122684 0)
(-0.0998925 0.0119112 0)
(-0.0958267 0.0115177 0)
(-0.0911699 0.0110777 0)
(-0.0858701 0.0105692 0)
(-0.0798745 0.00997187 0)
(-0.0731258 0.00926554 0)
(-0.0655525 0.0084254 0)
(-0.0570745 0.00742266 0)
(-0.0475733 0.00620584 0)
(-0.0371093 0.00473661 0)
(-0.0254964 0.0029882 0)
(-0.0127315 0.000917199 0)
(0.00130179 -0.00155695 0)
(0.0165267 -0.00448252 0)
(0.0331288 -0.00795161 0)
(0.0508567 -0.0120092 0)
(0.0701092 -0.0167258 0)
(0.090398 -0.0220433 0)
(0.112222 -0.0280002 0)
(0.13479 -0.03443 0)
(0.158931 -0.0413754 0)
(0.183513 -0.0486391 0)
(0.209677 -0.0562113 0)
(0.235923 -0.0637861 0)
(0.263715 -0.0714302 0)
(0.291283 -0.0787668 0)
(0.320242 -0.0859068 0)
(0.348691 -0.0924402 0)
(0.37825 -0.0985227 0)
(0.407068 -0.103754 0)
(0.436574 -0.108356 0)
(0.465222 -0.111967 0)
(0.493998 -0.114837 0)
(0.52194 -0.116677 0)
(0.549332 -0.117749 0)
(0.576125 -0.117856 0)
(0.601583 -0.117242 0)
(0.626914 -0.115812 0)
(0.650019 -0.113759 0)
(0.673729 -0.111101 0)
(0.694207 -0.107951 0)
(0.716288 -0.104445 0)
(0.733997 -0.100582 0)
(0.754585 -0.0966331 0)
(0.769495 -0.0924461 0)
(0.788843 -0.0884437 0)
(0.801006 -0.0842903 0)
(0.819465 -0.0805869 0)
(0.828982 -0.0767796 0)
(0.846978 -0.0736838 0)
(0.853969 -0.0704901 0)
(0.871981 -0.0682739 0)
(0.876555 -0.0659272 0)
(0.895104 -0.0648404 0)
(0.897329 -0.0635566 0)
(0.916959 -0.0638475 0)
(-0.00367273 0.00682257 0)
(-0.0134864 0.017271 0)
(-0.024535 0.022001 0)
(-0.033652 0.0246684 0)
(-0.0419167 0.0262639 0)
(-0.0495251 0.0271102 0)
(-0.0564375 0.0273861 0)
(-0.0625294 0.0272773 0)
(-0.0677098 0.0269205 0)
(-0.0719825 0.0263877 0)
(-0.0754052 0.0257255 0)
(-0.0780393 0.0249673 0)
(-0.0799469 0.0241413 0)
(-0.0811872 0.0232703 0)
(-0.0818154 0.0223719 0)
(-0.0818817 0.0214602 0)
(-0.081432 0.0205464 0)
(-0.0805065 0.019638 0)
(-0.0791375 0.0187385 0)
(-0.0773547 0.0178533 0)
(-0.0751813 0.0169865 0)
(-0.0726364 0.0161404 0)
(-0.0697334 0.0153153 0)
(-0.0664816 0.0145115 0)
(-0.0628853 0.0137268 0)
(-0.0589412 0.012957 0)
(-0.0546366 0.0121977 0)
(-0.0499719 0.0114539 0)
(-0.0449234 0.0107177 0)
(-0.0394726 0.00998047 0)
(-0.0335956 0.0092335 0)
(-0.0272644 0.00846648 0)
(-0.0204474 0.00766697 0)
(-0.0131061 0.00681924 0)
(-0.00518527 0.00590152 0)
(0.0033468 0.00488729 0)
(0.0125121 0.00375875 0)
(0.0223732 0.00250815 0)
(0.0329874 0.00111571 0)
(0.0443939 -0.000443721 0)
(0.0566736 -0.00220246 0)
(0.0698312 -0.00418211 0)
(0.0840142 -0.00641889 0)
(0.099104 -0.00896097 0)
(0.115371 -0.0118663 0)
(0.132678 -0.0151534 0)
(0.151274 -0.0188948 0)
(0.170856 -0.0231173 0)
(0.191842 -0.0278859 0)
(0.213669 -0.0331641 0)
(0.23698 -0.0390428 0)
(0.260901 -0.0454487 0)
(0.286328 -0.0524404 0)
(0.31203 -0.0598384 0)
(0.339206 -0.0676905 0)
(0.366281 -0.0757277 0)
(0.394757 -0.083995 0)
(0.42272 -0.0921439 0)
(0.451957 -0.10025 0)
(0.480265 -0.107915 0)
(0.509664 -0.115254 0)
(0.537723 -0.121841 0)
(0.566635 -0.12785 0)
(0.593837 -0.132857 0)
(0.621607 -0.137103 0)
(0.647388 -0.140197 0)
(0.673434 -0.142447 0)
(0.697351 -0.143506 0)
(0.721218 -0.14374 0)
(0.743003 -0.142851 0)
(0.764403 -0.14124 0)
(0.783967 -0.138664 0)
(0.80277 -0.13553 0)
(0.820184 -0.13165 0)
(0.836389 -0.127409 0)
(0.85185 -0.122677 0)
(0.865551 -0.117782 0)
(0.87935 -0.112659 0)
(0.890697 -0.107551 0)
(0.90318 -0.102467 0)
(0.91235 -0.0975384 0)
(0.923895 -0.0928685 0)
(0.931058 -0.0884526 0)
(0.942056 -0.0845152 0)
(0.947356 -0.0808874 0)
(0.958202 -0.0779504 0)
(0.961732 -0.0753398 0)
(0.972816 -0.0736358 0)
(0.974593 -0.07224 0)
(0.986297 -0.0719847 0)
(-0.00179932 0.0287975 0)
(-0.00957924 0.0405479 0)
(-0.0240663 0.0404881 0)
(-0.0354598 0.0380618 0)
(-0.0444855 0.0362027 0)
(-0.0509001 0.0347036 0)
(-0.0550069 0.0332169 0)
(-0.0572063 0.0316681 0)
(-0.0578606 0.0300677 0)
(-0.0572499 0.0284412 0)
(-0.0555636 0.02681 0)
(-0.0529518 0.0251887 0)
(-0.0495416 0.0235951 0)
(-0.0454407 0.0220407 0)
(-0.0407402 0.0205316 0)
(-0.0355173 0.0190718 0)
(-0.0298381 0.0176628 0)
(-0.0237602 0.0163022 0)
(-0.0173164 0.0149794 0)
(-0.010548 0.0136979 0)
(-0.00348172 0.0124583 0)
(0.00386339 0.0112574 0)
(0.0114736 0.0100916 0)
(0.019344 0.00895707 0)
(0.0274719 0.00784916 0)
(0.0358643 0.00675644 0)
(0.0445729 0.00566167 0)
(0.0535579 0.00454492 0)
(0.0628658 0.00340346 0)
(0.072526 0.00223483 0)
(0.0825676 0.00102874 0)
(0.0930264 -0.0002308 0)
(0.103941 -0.00156067 0)
(0.115347 -0.00297947 0)
(0.127293 -0.00450505 0)
(0.139808 -0.00615966 0)
(0.15294 -0.00797055 0)
(0.166738 -0.00996031 0)
(0.181282 -0.0121507 0)
(0.196562 -0.0145653 0)
(0.212696 -0.0172357 0)
(0.229623 -0.020187 0)
(0.247526 -0.0234575 0)
(0.266254 -0.0270517 0)
(0.286078 -0.0310231 0)
(0.306723 -0.0353997 0)
(0.328562 -0.0402363 0)
(0.351129 -0.0455362 0)
(0.374944 -0.0513548 0)
(0.399301 -0.0576541 0)
(0.424894 -0.0644874 0)
(0.450752 -0.0717585 0)
(0.477772 -0.0795012 0)
(0.504682 -0.0875359 0)
(0.532619 -0.0958772 0)
(0.559991 -0.104268 0)
(0.588213 -0.112725 0)
(0.61537 -0.120927 0)
(0.643182 -0.128912 0)
(0.669415 -0.136316 0)
(0.696117 -0.143225 0)
(0.720748 -0.14925 0)
(0.745691 -0.154548 0)
(0.768142 -0.158725 0)
(0.790802 -0.162025 0)
(0.81066 -0.164069 0)
(0.830696 -0.165193 0)
(0.847763 -0.165041 0)
(0.865053 -0.164039 0)
(0.879363 -0.161854 0)
(0.893985 -0.15898 0)
(0.905754 -0.155101 0)
(0.917922 -0.150758 0)
(0.927479 -0.145641 0)
(0.937481 -0.140308 0)
(0.945213 -0.134452 0)
(0.95336 -0.128626 0)
(0.95966 -0.122515 0)
(0.966241 -0.11665 0)
(0.971481 -0.110717 0)
(0.976742 -0.105205 0)
(0.981253 -0.0998131 0)
(0.985382 -0.0949783 0)
(0.989454 -0.0904251 0)
(0.992572 -0.0865264 0)
(0.996455 -0.0830526 0)
(0.998612 -0.0802975 0)
(1.00252 -0.0781022 0)
(1.00368 -0.0766591 0)
(1.0078 -0.0759088 0)
(-0.0195934 0.00827057 0)
(-0.0378312 0.0318985 0)
(-0.0410434 0.0392176 0)
(-0.0431576 0.0400014 0)
(-0.0420664 0.0383358 0)
(-0.0386401 0.0355765 0)
(-0.0333359 0.0325109 0)
(-0.0265 0.0294706 0)
(-0.0183809 0.0265521 0)
(-0.00927613 0.0238263 0)
(0.000643371 0.0212675 0)
(0.0112017 0.0188557 0)
(0.0222474 0.0165872 0)
(0.0336663 0.0144552 0)
(0.0453712 0.0124502 0)
(0.057289 0.010563 0)
(0.069361 0.00878679 0)
(0.0815179 0.00712079 0)
(0.0937948 0.0055588 0)
(0.106137 0.00407562 0)
(0.118527 0.00264747 0)
(0.130966 0.00125834 0)
(0.143451 -0.000101612 0)
(0.155998 -0.00144384 0)
(0.168607 -0.00277827 0)
(0.181294 -0.00411619 0)
(0.194115 -0.00546732 0)
(0.207061 -0.00685057 0)
(0.220187 -0.00828392 0)
(0.23354 -0.00978315 0)
(0.247152 -0.0113619 0)
(0.261064 -0.0130388 0)
(0.27532 -0.0148308 0)
(0.289959 -0.0167595 0)
(0.305031 -0.0188423 0)
(0.320569 -0.0210997 0)
(0.336633 -0.0235448 0)
(0.353237 -0.0262058 0)
(0.370462 -0.0291049 0)
(0.388286 -0.0322702 0)
(0.406816 -0.0357224 0)
(0.425977 -0.039488 0)
(0.445915 -0.0435888 0)
(0.466484 -0.0480479 0)
(0.487878 -0.0528909 0)
(0.509851 -0.0581369 0)
(0.532656 -0.0638086 0)
(0.555909 -0.069905 0)
(0.57994 -0.0764395 0)
(0.604192 -0.0833772 0)
(0.6291 -0.0907148 0)
(0.653902 -0.0983698 0)
(0.679177 -0.106318 0)
(0.703928 -0.114417 0)
(0.728922 -0.122626 0)
(0.75289 -0.130745 0)
(0.776865 -0.138729 0)
(0.799282 -0.146325 0)
(0.82151 -0.153513 0)
(0.841663 -0.16 0)
(0.861522 -0.165824 0)
(0.878853 -0.170671 0)
(0.895906 -0.174663 0)
(0.910085 -0.177478 0)
(0.924144 -0.179344 0)
(0.935106 -0.179941 0)
(0.946233 -0.179607 0)
(0.954164 -0.17802 0)
(0.96265 -0.175631 0)
(0.967944 -0.172105 0)
(0.97423 -0.16799 0)
(0.977384 -0.162932 0)
(0.981961 -0.157552 0)
(0.983491 -0.151453 0)
(0.986823 -0.145309 0)
(0.987191 -0.138674 0)
(0.989669 -0.132251 0)
(0.989251 -0.125541 0)
(0.991166 -0.119266 0)
(0.99024 -0.112876 0)
(0.991789 -0.107106 0)
(0.990547 -0.10136 0)
(0.991846 -0.0963819 0)
(0.990406 -0.0915375 0)
(0.991499 -0.087579 0)
(0.989927 -0.0838412 0)
(0.990793 -0.0810799 0)
(0.98911 -0.07861 0)
(0.989661 -0.0771836 0)
(0.987854 -0.0761047 0)
(-0.0189608 0.107875 0)
(-0.0181898 0.0727359 0)
(-0.0113664 0.0580334 0)
(0.00108099 0.046143 0)
(0.0173609 0.036336 0)
(0.0357796 0.0288071 0)
(0.0553998 0.0229015 0)
(0.0754567 0.0180657 0)
(0.0958168 0.0139168 0)
(0.115882 0.0102734 0)
(0.135803 0.00706265 0)
(0.155469 0.00423591 0)
(0.174783 0.0017207 0)
(0.193719 -0.000546898 0)
(0.212275 -0.00261039 0)
(0.23044 -0.00450029 0)
(0.248228 -0.00624019 0)
(0.265623 -0.00785216 0)
(0.282675 -0.00935567 0)
(0.299373 -0.0107731 0)
(0.315727 -0.0121308 0)
(0.331782 -0.0134537 0)
(0.34756 -0.0147632 0)
(0.363113 -0.0160791 0)
(0.378455 -0.0174195 0)
(0.393645 -0.0187988 0)
(0.408726 -0.0202306 0)
(0.423744 -0.0217254 0)
(0.438738 -0.0232986 0)
(0.453766 -0.0249729 0)
(0.468865 -0.0267654 0)
(0.48409 -0.0286979 0)
(0.499478 -0.030785 0)
(0.515079 -0.0330484 0)
(0.530925 -0.0355011 0)
(0.547059 -0.0381657 0)
(0.56351 -0.0410541 0)
(0.580305 -0.044191 0)
(0.597474 -0.0475883 0)
(0.615022 -0.0512712 0)
(0.632976 -0.0552479 0)
(0.651311 -0.0595418 0)
(0.670053 -0.0641574 0)
(0.689135 -0.0691153 0)
(0.70859 -0.0744148 0)
(0.728289 -0.0800725 0)
(0.748269 -0.0860803 0)
(0.768322 -0.0924403 0)
(0.788505 -0.0991264 0)
(0.808504 -0.106114 0)
(0.82842 -0.113353 0)
(0.847814 -0.120784 0)
(0.86687 -0.12833 0)
(0.884998 -0.135891 0)
(0.902522 -0.14337 0)
(0.918677 -0.150628 0)
(0.934019 -0.157562 0)
(0.947568 -0.164 0)
(0.960204 -0.169862 0)
(0.970685 -0.174958 0)
(0.980312 -0.179264 0)
(0.987514 -0.182581 0)
(0.994114 -0.184974 0)
(0.998122 -0.186241 0)
(1.00196 -0.186555 0)
(1.00313 -0.185704 0)
(1.0047 -0.183985 0)
(1.00356 -0.181153 0)
(1.0035 -0.177629 0)
(1.00067 -0.173118 0)
(0.999588 -0.168163 0)
(0.995631 -0.162396 0)
(0.994077 -0.156468 0)
(0.989464 -0.149912 0)
(0.987835 -0.143473 0)
(0.982887 -0.136576 0)
(0.98144 -0.130054 0)
(0.976345 -0.123214 0)
(0.975211 -0.116972 0)
(0.970046 -0.110524 0)
(0.96927 -0.104865 0)
(0.964035 -0.0990836 0)
(0.963604 -0.0942532 0)
(0.958248 -0.0893611 0)
(0.95811 -0.0855548 0)
(0.952548 -0.0817278 0)
(0.952618 -0.0790966 0)
(0.946733 -0.0764686 0)
(0.946885 -0.0751212 0)
(0.940529 -0.0737866 0)
(0.0698052 0.00704203 0)
(0.0897037 0.00653562 0)
(0.153291 0.00608747 0)
(0.198098 0.00292558 0)
(0.236817 -0.00134616 0)
(0.27199 -0.00543419 0)
(0.304464 -0.00895377 0)
(0.334045 -0.0119226 0)
(0.361563 -0.0144537 0)
(0.387208 -0.0166241 0)
(0.411399 -0.0185165 0)
(0.434315 -0.0201821 0)
(0.456055 -0.0216603 0)
(0.476729 -0.0229829 0)
(0.496441 -0.0241745 0)
(0.515275 -0.0252539 0)
(0.533301 -0.0262408 0)
(0.550581 -0.027155 0)
(0.567171 -0.028023 0)
(0.583129 -0.028865 0)
(0.598501 -0.029699 0)
(0.613349 -0.0305458 0)
(0.62772 -0.0314247 0)
(0.641679 -0.0323563 0)
(0.655267 -0.0333566 0)
(0.668551 -0.034444 0)
(0.681576 -0.0356335 0)
(0.694399 -0.0369406 0)
(0.707055 -0.0383787 0)
(0.719601 -0.0399649 0)
(0.732067 -0.0417128 0)
(0.744509 -0.0436393 0)
(0.75695 -0.0457566 0)
(0.769433 -0.0480827 0)
(0.781973 -0.0506288 0)
(0.794604 -0.0534122 0)
(0.807327 -0.0564418 0)
(0.820167 -0.0597341 0)
(0.833109 -0.0632952 0)
(0.846166 -0.0671407 0)
(0.859304 -0.0712724 0)
(0.87252 -0.0757038 0)
(0.88576 -0.0804302 0)
(0.898998 -0.0854613 0)
(0.912161 -0.0907841 0)
(0.925192 -0.0964029 0)
(0.937999 -0.102293 0)
(0.950492 -0.108445 0)
(0.96257 -0.114815 0)
(0.974101 -0.121375 0)
(0.98499 -0.128053 0)
(0.995063 -0.134799 0)
(1.00426 -0.141513 0)
(1.01236 -0.148122 0)
(1.01938 -0.154502 0)
(1.02506 -0.160561 0)
(1.02956 -0.166168 0)
(1.03253 -0.171226 0)
(1.03437 -0.175624 0)
(1.03458 -0.179271 0)
(1.03389 -0.182098 0)
(1.03155 -0.184029 0)
(1.02872 -0.185062 0)
(1.02428 -0.185129 0)
(1.0199 -0.184311 0)
(1.01393 -0.182533 0)
(1.00868 -0.179978 0)
(1.00175 -0.176533 0)
(0.996237 -0.172494 0)
(0.988814 -0.167679 0)
(0.983489 -0.162507 0)
(0.975855 -0.156689 0)
(0.971012 -0.150774 0)
(0.9633 -0.14433 0)
(0.959082 -0.138053 0)
(0.951298 -0.131341 0)
(0.947741 -0.125054 0)
(0.939816 -0.1184 0)
(0.936907 -0.112417 0)
(0.928733 -0.106105 0)
(0.926443 -0.100698 0)
(0.917898 -0.0949725 0)
(0.916198 -0.0903705 0)
(0.907148 -0.0854349 0)
(0.906006 -0.0818258 0)
(0.896299 -0.0778427 0)
(0.89567 -0.0753687 0)
(0.885121 -0.0724547 0)
(0.884921 -0.0712034 0)
(0.873311 -0.0694228 0)
(0.773473 -0.00912357 0)
(0.774974 -0.0205084 0)
(0.775756 -0.0266902 0)
(0.777373 -0.0303547 0)
(0.78095 -0.032974 0)
(0.786259 -0.0351441 0)
(0.79302 -0.0369932 0)
(0.800606 -0.0384853 0)
(0.808786 -0.0396412 0)
(0.817354 -0.0404946 0)
(0.826131 -0.0411232 0)
(0.834984 -0.0415971 0)
(0.843817 -0.0419597 0)
(0.852556 -0.0422371 0)
(0.861148 -0.0424475 0)
(0.869551 -0.0426064 0)
(0.877736 -0.04273 0)
(0.885682 -0.0428358 0)
(0.893377 -0.0429434 0)
(0.90082 -0.0430726 0)
(0.908012 -0.0432426 0)
(0.914968 -0.0434734 0)
(0.921701 -0.0437841 0)
(0.928233 -0.0441942 0)
(0.934583 -0.0447213 0)
(0.940778 -0.0453835 0)
(0.946839 -0.0461977 0)
(0.952792 -0.0471788 0)
(0.958653 -0.0483396 0)
(0.964446 -0.0496922 0)
(0.970184 -0.0512475 0)
(0.975889 -0.0530162 0)
(0.981565 -0.055008 0)
(0.987226 -0.057233 0)
(0.99287 -0.0596997 0)
(0.998502 -0.0624167 0)
(1.00411 -0.06539 0)
(1.00969 -0.0686265 0)
(1.01522 -0.0721294 0)
(1.02068 -0.0759033 0)
(1.02603 -0.0799476 0)
(1.03126 -0.0842635 0)
(1.0363 -0.0888445 0)
(1.04112 -0.0936861 0)
(1.04564 -0.0987733 0)
(1.04982 -0.104093 0)
(1.05358 -0.109615 0)
(1.05686 -0.115315 0)
(1.05956 -0.121147 0)
(1.06164 -0.127071 0)
(1.06299 -0.13302 0)
(1.06358 -0.138939 0)
(1.06331 -0.14474 0)
(1.06218 -0.150356 0)
(1.06013 -0.155683 0)
(1.05717 -0.16065 0)
(1.05332 -0.165148 0)
(1.0486 -0.169119 0)
(1.04313 -0.17246 0)
(1.03689 -0.175135 0)
(1.03013 -0.177059 0)
(1.02275 -0.178223 0)
(1.01517 -0.178577 0)
(1.00706 -0.178138 0)
(0.999111 -0.176898 0)
(0.990622 -0.174889 0)
(0.982675 -0.172157 0)
(0.973995 -0.168726 0)
(0.966244 -0.164707 0)
(0.95738 -0.160082 0)
(0.949892 -0.155043 0)
(0.940732 -0.149493 0)
(0.933516 -0.143737 0)
(0.923906 -0.13756 0)
(0.916973 -0.13141 0)
(0.90676 -0.124908 0)
(0.900164 -0.118692 0)
(0.889224 -0.112166 0)
(0.88308 -0.106204 0)
(0.871313 -0.0999361 0)
(0.865789 -0.0945227 0)
(0.853087 -0.0887556 0)
(0.848376 -0.084142 0)
(0.834586 -0.0790674 0)
(0.830885 -0.0754567 0)
(0.815775 -0.0712153 0)
(0.813267 -0.068757 0)
(0.796508 -0.0654303 0)
(0.795343 -0.0642032 0)
(0.776506 -0.0618004 0)
(1.05706 0.00839116 0)
(1.06014 3.97572e-05 0)
(1.06083 -0.00708108 0)
(1.06006 -0.0127001 0)
(1.05916 -0.0172919 0)
(1.05883 -0.021264 0)
(1.0592 -0.0247917 0)
(1.06014 -0.0278852 0)
(1.06141 -0.0305406 0)
(1.06287 -0.032776 0)
(1.06442 -0.034635 0)
(1.06603 -0.036171 0)
(1.06765 -0.037436 0)
(1.06928 -0.0384753 0)
(1.07089 -0.0393281 0)
(1.07245 -0.040029 0)
(1.07396 -0.0406101 0)
(1.07539 -0.0411025 0)
(1.07673 -0.0415367 0)
(1.07798 -0.0419427 0)
(1.07913 -0.0423495 0)
(1.08019 -0.042785 0)
(1.08115 -0.0432757 0)
(1.08202 -0.0438465 0)
(1.08282 -0.0445208 0)
(1.08354 -0.0453203 0)
(1.08419 -0.0462647 0)
(1.08479 -0.0473713 0)
(1.08533 -0.0486549 0)
(1.08582 -0.0501283 0)
(1.08626 -0.0518026 0)
(1.08665 -0.0536876 0)
(1.087 -0.0557917 0)
(1.08729 -0.0581213 0)
(1.08752 -0.0606822 0)
(1.08767 -0.0634784 0)
(1.08775 -0.0665136 0)
(1.08773 -0.0697897 0)
(1.08759 -0.0733077 0)
(1.08732 -0.0770664 0)
(1.08688 -0.0810634 0)
(1.08626 -0.085293 0)
(1.08542 -0.0897474 0)
(1.08433 -0.0944145 0)
(1.08295 -0.0992786 0)
(1.08126 -0.104318 0)
(1.07922 -0.109508 0)
(1.0768 -0.114814 0)
(1.07396 -0.120198 0)
(1.07068 -0.125615 0)
(1.06692 -0.131011 0)
(1.06269 -0.136329 0)
(1.05796 -0.141499 0)
(1.05275 -0.146458 0)
(1.04703 -0.151127 0)
(1.04087 -0.155442 0)
(1.03424 -0.159326 0)
(1.02722 -0.162721 0)
(1.0198 -0.165553 0)
(1.01205 -0.167783 0)
(1.00397 -0.169339 0)
(0.995596 -0.170205 0)
(0.986926 -0.170323 0)
(0.977942 -0.16971 0)
(0.968681 -0.168328 0)
(0.959002 -0.166232 0)
(0.949067 -0.163408 0)
(0.93853 -0.159937 0)
(0.927815 -0.155819 0)
(0.916249 -0.151144 0)
(0.904706 -0.145938 0)
(0.891995 -0.140288 0)
(0.879699 -0.134273 0)
(0.865836 -0.127953 0)
(0.85302 -0.121479 0)
(0.838087 -0.114829 0)
(0.82511 -0.108261 0)
(0.809226 -0.101619 0)
(0.796533 -0.0953221 0)
(0.779789 -0.0889991 0)
(0.767879 -0.0833017 0)
(0.750261 -0.0775418 0)
(0.739645 -0.0727069 0)
(0.720952 -0.0676653 0)
(0.712149 -0.0638887 0)
(0.691929 -0.0596379 0)
(0.685503 -0.0570614 0)
(0.663012 -0.0536009 0)
(0.659637 -0.0523118 0)
(0.633805 -0.0495644 0)
(1.08183 -0.00314365 0)
(1.0878 -0.0106933 0)
(1.0921 -0.0179965 0)
(1.09478 -0.0240576 0)
(1.09631 -0.0287332 0)
(1.0973 -0.0323485 0)
(1.09815 -0.0352616 0)
(1.09901 -0.0376994 0)
(1.09988 -0.0397548 0)
(1.10072 -0.0414552 0)
(1.10147 -0.0428143 0)
(1.10213 -0.0438574 0)
(1.10269 -0.0446236 0)
(1.10317 -0.045159 0)
(1.10357 -0.0455099 0)
(1.1039 -0.045719 0)
(1.10414 -0.0458251 0)
(1.10431 -0.0458637 0)
(1.10438 -0.0458681 0)
(1.10437 -0.0458697 0)
(1.10425 -0.0458986 0)
(1.10405 -0.0459831 0)
(1.10374 -0.0461493 0)
(1.10335 -0.0464217 0)
(1.10287 -0.0468221 0)
(1.1023 -0.0473705 0)
(1.10164 -0.0480842 0)
(1.1009 -0.0489782 0)
(1.10008 -0.0500651 0)
(1.09918 -0.0513554 0)
(1.0982 -0.0528576 0)
(1.09713 -0.0545783 0)
(1.09598 -0.0565225 0)
(1.09473 -0.058694 0)
(1.09339 -0.0610954 0)
(1.09194 -0.0637282 0)