/*--------------------------------*- C++ -*----------------------------------*\
| =========                 |                                                 |
| \\      /  F ield         | OpenFOAM: The Open Source CFD Toolbox           |
|  \\    /   O peration     | Version:  2306                                  |
|   \\  /    A nd           | Website:  www.openfoam.com                      |
|    \\/     M anipulation  |                                                 |
\*---------------------------------------------------------------------------*/
FoamFile
{
    version     2.0;
    format      ascii;
    arch        "LSB;label=32;scalar=64";
    class       volScalarField;
    location    "1.38";
    object      p;
}
// * * * * * * * * * * * * * * * * * * * * * * * * * * * * * * * * * * * * * //

dimensions      [0 2 -2 0 0 0 0];

internalField   nonuniform List<scalar> 
47500
(
14.2636
8.31616
5.39827
4.19502
3.55688
3.16766
2.9173
2.7443
2.61606
2.51597
2.43485
2.36709
2.3091
2.25842
2.21333
2.17257
2.1352
2.10051
2.06795
2.03707
2.00753
1.97905
1.95139
1.92438
1.89786
1.87169
1.84577
1.82001
1.79433
1.76867
1.74297
1.71719
1.69128
1.66523
1.63901
1.61262
1.58606
1.55936
1.53258
1.5058
1.47919
1.453
1.42761
1.40364
1.38187
1.363
1.34745
1.33359
1.28841
1.04328
9.49511
7.11983
5.49165
4.53466
3.89692
3.45613
3.14914
2.92822
2.7627
2.63423
2.53143
2.44689
2.37569
2.31445
2.26078
2.21298
2.16974
2.13012
2.09336
2.05889
2.02625
1.99507
1.96506
1.93596
1.9076
1.87978
1.85238
1.82527
1.79836
1.77155
1.74478
1.71797
1.69107
1.66404
1.63683
1.6094
1.58173
1.5538
1.52558
1.49708
1.46827
1.43913
1.40958
1.37942
1.34803
1.31385
1.27372
1.222
1.13977
0.970464
6.67606
5.93527
5.1272
4.46306
3.94452
3.54967
3.25203
3.02531
2.84922
2.70954
2.59636
2.50272
2.42371
2.35582
2.2965
2.24387
2.1965
2.15331
2.11347
2.07631
2.04132
2.00807
1.97623
1.94551
1.91568
1.88655
1.85796
1.82977
1.80185
1.77411
1.74645
1.7188
1.69108
1.66322
1.63517
1.60686
1.57824
1.54923
1.51977
1.48975
1.45906
1.42747
1.39465
1.36002
1.3225
1.28019
1.22989
1.16696
1.0827
0.962354
5.23431
5.05263
4.64952
4.21693
3.83683
3.52091
3.26392
3.05619
2.88763
2.74955
2.63501
2.53866
2.45645
2.38528
2.32281
2.26725
2.21721
2.17161
2.1296
2.09049
2.05374
2.01892
1.98566
1.95366
1.92267
1.89248
1.86292
1.83383
1.80508
1.77655
1.74815
1.71978
1.69136
1.6628
1.63403
1.60497
1.57552
1.54561
1.5151
1.48386
1.45168
1.41829
1.38326
1.34597
1.30544
1.26023
1.2083
1.14713
1.07328
0.9839
4.39925
4.41398
4.22389
3.95437
3.6873
3.44491
3.23307
3.05192
2.89835
2.76816
2.65726
2.56206
2.47955
2.40731
2.34337
2.28616
2.23443
2.18718
2.14358
2.10299
2.06487
2.02878
1.99434
1.96125
1.92927
1.89816
1.86774
1.83786
1.80836
1.77914
1.75007
1.72105
1.692
1.66281
1.63339
1.60366
1.57351
1.54282
1.51145
1.47925
1.44597
1.41134
1.37496
1.33627
1.29458
1.24894
1.1983
1.14172
1.07852
1.00976
3.87569
3.95338
3.87489
3.71212
3.52866
3.34703
3.17726
3.02416
2.88873
2.76992
2.66587
2.57455
2.49401
2.4225
2.35851
2.30079
2.24828
2.20008
2.15548
2.11387
2.07474
2.03767
2.0023
1.96834
1.93552
1.90364
1.87249
1.84192
1.81178
1.78194
1.75228
1.7227
1.69309
1.66336
1.6334
1.60312
1.57239
1.54111
1.50911
1.47625
1.44229
1.40699
1.37001
1.33097
1.2894
1.24482
1.19683
1.14539
1.09107
1.03588
3.53079
3.61953
3.59619
3.49996
3.3756
3.2416
3.10812
2.9815
2.86481
2.75891
2.66356
2.57794
2.50098
2.4316
2.36875
2.31149
2.25897
2.21049
2.16541
2.12321
2.08342
2.04567
2.00961
1.97497
1.9415
1.90898
1.87723
1.84608
1.8154
1.78503
1.75488
1.72483
1.69476
1.66458
1.63419
1.60349
1.57235
1.54066
1.50828
1.47506
1.44082
1.40535
1.36842
1.32978
1.28921
1.24653
1.20176
1.1553
1.10809
1.06205
3.29068
3.37293
3.37571
3.32012
3.23647
3.1384
3.03456
2.93124
2.83219
2.73933
2.65339
2.57442
2.50207
2.43579
2.37494
2.31888
2.26701
2.21878
2.17367
2.13125
2.09112
2.05295
2.01642
1.98129
1.94731
1.9143
1.88206
1.85044
1.81931
1.78852
1.75795
1.72751
1.69708
1.66657
1.63586
1.60486
1.57347
1.54156
1.50903
1.47574
1.44154
1.40631
1.36989
1.33217
1.29308
1.25266
1.21116
1.16912
1.12752
1.0879
3.11483
3.18639
3.20096
3.17007
3.11407
3.04249
2.9621
2.87839
2.7951
2.71452
2.63796
2.56599
2.49877
2.43618
2.37791
2.32361
2.27288
2.22532
2.18056
2.13824
2.09804
2.05967
2.02287
1.98741
1.95307
1.91968
1.88707
1.85508
1.82359
1.79245
1.76157
1.73083
1.70013
1.66937
1.63846
1.6073
1.5758
1.54385
1.51136
1.47822
1.44435
1.40965
1.37405
1.33754
1.30016
1.26207
1.22362
1.18536
1.14818
1.11323
2.98096
3.04208
3.06142
3.0455
3.00819
2.95594
2.89376
2.82614
2.75645
2.687
2.6193
2.55426
2.49234
2.43374
2.37843
2.32626
2.27703
2.23048
2.18635
2.14439
2.10434
2.06598
2.02907
1.99343
1.95886
1.92521
1.89232
1.86006
1.82829
1.7969
1.76577
1.73482
1.70394
1.67303
1.64202
1.61081
1.57933
1.54748
1.5152
1.48241
1.44905
1.41509
1.38051
1.34535
1.30974
1.27389
1.23817
1.20311
1.16942
1.13799
2.87614
2.92826
2.94895
2.94211
2.91744
2.87922
2.83104
2.77643
2.71822
2.65856
2.59898
2.54051
2.48383
2.42931
2.37714
2.32733
2.27984
2.23454
2.19128
2.14989
2.11019
2.07199
2.03512
1.99942
1.96474
1.93094
1.89786
1.8654
1.83344
1.80186
1.77058
1.73948
1.7085
1.67754
1.64651
1.61536
1.58401
1.55239
1.52045
1.48813
1.45543
1.42232
1.38885
1.3551
1.32122
1.28745
1.25413
1.22174
1.19085
1.16213
2.79237
2.83706
2.85746
2.85612
2.84004
2.812
2.77453
2.73032
2.68168
2.63047
2.57815
2.52576
2.47407
2.42357
2.37458
2.32725
2.28166
2.23778
2.19555
2.15489
2.11568
2.07778
2.04108
2.00544
1.97075
1.93687
1.9037
1.87112
1.83903
1.80735
1.77597
1.74481
1.71379
1.68284
1.6519
1.62089
1.58975
1.55845
1.52694
1.49521
1.46324
1.43106
1.39873
1.36636
1.33411
1.30222
1.271
1.24084
1.21222
1.18563
2.72442
2.76305
2.78246
2.78443
2.7742
2.75358
2.72429
2.68834
2.64759
2.6036
2.55766
2.51077
2.46372
2.41707
2.3712
2.32637
2.28275
2.24039
2.19931
2.1595
2.12089
2.08341
2.04698
2.0115
1.97687
1.94301
1.90981
1.87718
1.84505
1.81331
1.7819
1.75074
1.71976
1.68889
1.65809
1.62728
1.59644
1.56553
1.53453
1.50342
1.47223
1.441
1.4098
1.37874
1.348
1.31779
1.28838
1.26011
1.23335
1.20846
2.66874
2.70243
2.72058
2.72451
2.7183
2.7031
2.68006
2.65067
2.61638
2.57848
2.53808
2.4961
2.45329
2.41023
2.36736
2.32499
2.28333
2.24254
2.20268
2.1638
2.12589
2.08891
2.05283
2.01758
1.9831
1.94932
1.91616
1.88355
1.85142
1.81969
1.78831
1.7572
1.72631
1.69559
1.66498
1.63444
1.60395
1.57347
1.54301
1.51257
1.48217
1.45187
1.42175
1.39193
1.36256
1.33384
1.306
1.27932
1.25409
1.2306
2.62282
2.65247
2.6693
2.67437
2.67094
2.65972
2.64146
2.61727
2.58825
2.55545
2.5198
2.48214
2.44315
2.4034
2.36334
2.32331
2.28359
2.24436
2.20576
2.16785
2.13068
2.09427
2.0586
2.02366
1.98939
1.95575
1.92269
1.89015
1.85808
1.82642
1.79511
1.76411
1.73336
1.70282
1.67245
1.64222
1.61211
1.58211
1.55222
1.52244
1.49283
1.46344
1.43434
1.40565
1.37752
1.35011
1.32363
1.2983
1.27435
1.252
2.58482
2.61117
2.62675
2.63244
2.63092
2.62264
2.60806
2.58797
2.56324
2.53468
2.5031
2.46919
2.43358
2.39682
2.35935
2.32154
2.28367
2.24596
2.20859
2.17168
2.13529
2.09948
2.06428
2.02968
1.99567
1.96222
1.92931
1.8969
1.86494
1.83339
1.8022
1.77135
1.74078
1.71046
1.68037
1.65048
1.62079
1.59127
1.56195
1.53284
1.50399
1.47546
1.44731
1.41967
1.39265
1.3664
1.34109
1.3169
1.29402
1.27263
2.55339
2.57702
2.59145
2.59745
2.59727
2.59116
2.57941
2.56257
2.54131
2.51627
2.48811
2.45743
2.42479
2.3907
2.35558
2.3198
2.28367
2.24741
2.21124
2.17531
2.13971
2.10453
2.06981
2.03559
2.00188
1.96868
1.93596
1.9037
1.87189
1.84049
1.80947
1.7788
1.74845
1.71839
1.68861
1.65908
1.62981
1.60079
1.57204
1.54359
1.51546
1.48774
1.46047
1.43377
1.40774
1.38251
1.35822
1.33502
1.31305
1.29245
2.52748
2.54888
2.5623
2.56841
2.56916
2.56468
2.55509
2.54083
2.52236
2.50021
2.47492
2.44699
2.41693
2.38518
2.35216
2.31822
2.28368
2.24878
2.21375
2.17875
2.14392
2.10937
2.07516
2.04134
2.00796
1.97502
1.94252
1.91047
1.87884
1.84763
1.8168
1.78635
1.75624
1.72647
1.69701
1.66787
1.63903
1.61051
1.58232
1.55449
1.52706
1.50009
1.47364
1.4478
1.42266
1.39832
1.37492
1.35256
1.33136
1.31144
2.50631
2.52589
2.53843
2.54454
2.54594
2.54266
2.53475
2.5225
2.50628
2.48649
2.46357
2.43796
2.41008
2.38037
2.34918
2.31688
2.28377
2.25011
2.21612
2.18201
2.14792
2.11397
2.08027
2.04687
2.01382
1.98117
1.94893
1.9171
1.88569
1.85469
1.82409
1.79387
1.76404
1.73457
1.70546
1.6767
1.6483
1.62027
1.59263
1.56541
1.53863
1.51236
1.48666
1.46159
1.43724
1.4137
1.39107
1.36944
1.34891
1.32956
2.48926
2.50737
2.51917
2.52523
2.52707
2.52468
2.51806
2.50738
2.49294
2.47505
2.45407
2.43037
2.40433
2.37633
2.34673
2.31585
2.28399
2.25143
2.2184
2.1851
2.15169
2.11832
2.0851
2.0521
2.01941
1.98705
1.95508
1.9235
1.89233
1.86156
1.83121
1.80127
1.77172
1.74257
1.71382
1.68546
1.6575
1.62995
1.60284
1.57619
1.55003
1.52442
1.49939
1.47503
1.45139
1.42855
1.4066
1.3856
1.36564
1.34678
2.47588
2.49281
2.504
2.50997
2.51212
2.51039
2.50473
2.49527
2.48222
2.46583
2.4464
2.42425
2.39972
2.37314
2.34485
2.31517
2.2844
2.25279
2.22059
2.188
2.15522
2.12238
2.08961
2.057
2.02465
1.9926
1.9609
1.92958
1.89867
1.86816
1.83808
1.80842
1.77918
1.75036
1.72197
1.69401
1.66649
1.63942
1.61282
1.58671
1.56113
1.53612
1.51173
1.488
1.465
1.44279
1.42142
1.40098
1.38151
1.36307
2.46579
2.48182
2.49253
2.4984
2.50075
2.4995
2.49456
2.48601
2.47401
2.45877
2.44055
2.41961
2.39626
2.37082
2.3436
2.3149
2.28501
2.2542
2.2227
2.19073
2.15849
2.12612
2.09376
2.06152
2.0295
1.99775
1.96633
1.93528
1.90463
1.8744
1.8446
1.81523
1.78631
1.75784
1.72982
1.70226
1.67517
1.64856
1.62246
1.59687
1.57184
1.54739
1.52357
1.50042
1.47799
1.45634
1.4355
1.41554
1.3965
1.37843
2.45873
2.47409
2.48444
2.49024
2.49272
2.49179
2.48735
2.47945
2.46822
2.45383
2.43648
2.41645
2.39399
2.36941
2.343
2.31506
2.28586
2.25567
2.22474
2.19328
2.16149
2.12952
2.09753
2.06562
2.0339
2.00244
1.9713
1.94052
1.91015
1.8802
1.85069
1.82164
1.79305
1.76493
1.73728
1.71012
1.68346
1.6573
1.63166
1.60657
1.58205
1.55813
1.53484
1.51222
1.49031
1.46915
1.44878
1.42925
1.41058
1.39282
2.45451
2.46943
2.47953
2.48527
2.48783
2.48711
2.48299
2.47551
2.46478
2.45094
2.43419
2.41476
2.39291
2.36892
2.34307
2.31566
2.28696
2.25724
2.22673
2.19565
2.16421
2.13258
2.10089
2.06927
2.03783
2.00664
1.97577
1.94526
1.91517
1.88551
1.8563
1.82756
1.79931
1.77154
1.74427
1.71751
1.69126
1.66554
1.64036
1.61574
1.5917
1.56827
1.54547
1.52333
1.50189
1.48117
1.46122
1.44207
1.42373
1.40625
2.453
2.46769
2.47766
2.48336
2.48595
2.48534
2.48138
2.47411
2.46364
2.45009
2.43365
2.41454
2.39302
2.36935
2.34383
2.31673
2.28833
2.25889
2.22865
2.19784
2.16666
2.13527
2.10383
2.07245
2.04125
2.01031
1.9797
1.94946
1.91964
1.89027
1.86137
1.83295
1.80504
1.77763
1.75074
1.72437
1.69853
1.67323
1.64849
1.62432
1.60074
1.57776
1.55541
1.53371
1.51269
1.49238
1.47281
1.45399
1.43594
1.4187
2.45414
2.46881
2.47876
2.48445
2.48704
2.48642
2.48247
2.47522
2.46477
2.45125
2.43484
2.41578
2.39432
2.37072
2.34528
2.31826
2.28996
2.26064
2.23052
2.19985
2.16882
2.13759
2.10633
2.07515
2.04416
2.01344
1.98306
1.95308
1.92354
1.89445
1.86586
1.83777
1.8102
1.78315
1.75663
1.73065
1.70521
1.68033
1.65601
1.63226
1.6091
1.58655
1.56462
1.54333
1.5227
1.50276
1.48351
1.46499
1.44721
1.43017
2.45793
2.47278
2.48283
2.48854
2.49108
2.49037
2.48627
2.47884
2.46817
2.45442
2.43778
2.41849
2.39681
2.37302
2.34741
2.32026
2.29186
2.26247
2.23234
2.20168
2.17069
2.13954
2.10839
2.07735
2.04653
2.01601
1.98585
1.95612
1.92684
1.89804
1.86976
1.84199
1.81476
1.78806
1.76192
1.73632
1.71127
1.68679
1.66287
1.63953
1.61678
1.59462
1.57308
1.55217
1.53189
1.51228
1.49333
1.47508
1.45752
1.44067
2.46442
2.47967
2.48993
2.49568
2.49814
2.49722
2.49281
2.48498
2.47386
2.45961
2.44246
2.42266
2.40049
2.37625
2.35022
2.32272
2.29402
2.2644
2.23408
2.20331
2.17226
2.14111
2.11
2.07905
2.04836
2.01801
1.98806
1.95856
1.92954
1.90103
1.87304
1.8456
1.81871
1.79237
1.76658
1.74136
1.71669
1.6926
1.66907
1.64611
1.62374
1.60196
1.58078
1.5602
1.54025
1.52094
1.50227
1.48425
1.46689
1.4502
2.47373
2.48959
2.50018
2.50599
2.50831
2.50707
2.50217
2.49372
2.48188
2.46686
2.4489
2.4283
2.40535
2.38038
2.3537
2.32562
2.29643
2.26639
2.23576
2.20474
2.17353
2.1423
2.11117
2.08026
2.04967
2.01946
1.98969
1.96041
1.93164
1.9034
1.87572
1.8486
1.82204
1.79605
1.77062
1.74576
1.72147
1.69774
1.67458
1.65199
1.62998
1.60854
1.58769
1.56744
1.54779
1.52874
1.51031
1.49251
1.47533
1.45879
2.48603
2.50275
2.5138
2.51967
2.52178
2.52007
2.51448
2.50515
2.4923
2.47619
2.45711
2.4354
2.41138
2.38541
2.35782
2.32894
2.29905
2.26844
2.23734
2.20596
2.1745
2.1431
2.11189
2.08098
2.05045
2.02035
1.99075
1.96168
1.93315
1.90519
1.8778
1.85099
1.82476
1.79911
1.77403
1.74953
1.72559
1.70222
1.67941
1.65717
1.63549
1.61438
1.59384
1.57388
1.5545
1.5357
1.51749
1.49987
1.48285
1.46643
2.5016
2.51944
2.53106
2.53701
2.5388
2.53644
2.5299
2.5194
2.50521
2.48766
2.46712
2.44395
2.41855
2.3913
2.36254
2.33263
2.30186
2.27051
2.23881
2.20697
2.17516
2.14352
2.11218
2.08122
2.05072
2.02072
1.99127
1.96239
1.93409
1.9064
1.8793
1.8528
1.82689
1.80157
1.77683
1.75267
1.72907
1.70604
1.68357
1.66165
1.64029
1.61948
1.59923
1.57953
1.56039
1.54182
1.52381
1.50636
1.48948
1.47317
2.52077
2.54004
2.55237
2.55836
2.5597
2.55645
2.54865
2.53661
2.5207
2.50132
2.47892
2.45395
2.42683
2.39799
2.36782
2.33665
2.30481
2.27256
2.24013
2.20772
2.17549
2.14356
2.11204
2.081
2.05049
2.02057
1.99126
1.96256
1.93449
1.90705
1.88023
1.85403
1.82844
1.80344
1.77903
1.7552
1.73193
1.70922
1.68706
1.66545
1.64438
1.62385
1.60386
1.58441
1.5655
1.54712
1.52928
1.51198
1.49523
1.47901
2.54401
2.56505
2.57822
2.5842
2.58489
2.58045
2.57101
2.55699
2.53888
2.51722
2.49254
2.46536
2.43617
2.40544
2.37357
2.34093
2.30784
2.27455
2.24128
2.20821
2.17548
2.14321
2.11147
2.08031
2.0498
2.01993
1.99074
1.96222
1.93437
1.90718
1.88064
1.85473
1.82944
1.80476
1.78066
1.75714
1.73419
1.71178
1.68992
1.66859
1.64779
1.62752
1.60777
1.58854
1.56982
1.55163
1.53394
1.51678
1.50012
1.48398
2.57191
2.59513
2.60929
2.61514
2.61491
2.60885
2.59727
2.58073
2.55989
2.53541
2.50795
2.47812
2.44648
2.41354
2.37972
2.34539
2.31087
2.27641
2.2422
2.20839
2.17512
2.14246
2.11047
2.07919
2.04864
2.01883
1.98975
1.9614
1.93376
1.90682
1.88054
1.85492
1.82992
1.80554
1.78174
1.75852
1.73586
1.71374
1.69216
1.67109
1.65055
1.63051
1.61097
1.59194
1.5734
1.55536
1.53782
1.52076
1.5042
1.48812
2.60526
2.63115
2.64643
2.65196
2.6504
2.64218
2.62781
2.60806
2.58382
2.5559
2.52511
2.49215
2.45766
2.42217
2.38613
2.34992
2.31382
2.27806
2.24283
2.20823
2.17437
2.14129
2.10904
2.07762
2.04704
2.01727
1.98831
1.96013
1.9327
1.90599
1.87998
1.85463
1.82991
1.80582
1.78231
1.75937
1.73698
1.71513
1.6938
1.67298
1.65266
1.63283
1.6135
1.59464
1.57626
1.55836
1.54093
1.52397
1.50748
1.49146
2.64508
2.67424
2.69074
2.69564
2.69216
2.68103
2.66302
2.63922
2.61076
2.57868
2.54392
2.50731
2.46953
2.43116
2.39266
2.35436
2.31655
2.27942
2.24309
2.20767
2.1732
2.1397
2.10718
2.07562
2.045
2.01529
1.98644
1.95843
1.9312
1.90473
1.87897
1.85388
1.82944
1.80562
1.78238
1.75971
1.73758
1.71597
1.69488
1.67428
1.65417
1.63453
1.61537
1.59667
1.57843
1.56064
1.54331
1.52643
1.51
1.49402
2.69272
2.72587
2.74367
2.74743
2.74119
2.7261
2.70334
2.67441
2.64074
2.60364
2.5642
2.52337
2.48187
2.4403
2.39909
2.35856
2.31893
2.28035
2.2429
2.20663
2.17155
2.13764
2.10487
2.07318
2.04254
2.01289
1.98417
1.95632
1.9293
1.90306
1.87754
1.85271
1.82853
1.80497
1.78199
1.75956
1.73767
1.7163
1.69542
1.67502
1.65509
1.63563
1.61661
1.59805
1.57993
1.56225
1.545
1.52818
1.5118
1.49585
2.75
2.78805
2.80709
2.80889
2.79864
2.77817
2.74921
2.71377
2.67371
2.63059
2.58569
2.54003
2.49438
2.4493
2.40518
2.36228
2.32076
2.28071
2.24214
2.20504
2.16937
2.13507
2.10207
2.07029
2.03965
2.01007
1.98148
1.95382
1.92701
1.90099
1.87572
1.85114
1.82722
1.8039
1.78116
1.75897
1.7373
1.71613
1.69544
1.67523
1.65546
1.63615
1.61727
1.59882
1.5808
1.5632
1.54602
1.52926
1.51291
1.49697
2.81941
2.86349
2.88352
2.88201
2.86593
2.83807
2.80098
2.75733
2.70945
2.65918
2.60797
2.55687
2.50664
2.45777
2.41059
2.36525
2.32183
2.28031
2.24066
2.20278
2.16658
2.13194
2.09876
2.06691
2.0363
2.00683
1.9784
1.95093
1.92434
1.89856
1.87353
1.84919
1.8255
1.80242
1.77991
1.75793
1.73647
1.71549
1.69498
1.67493
1.65531
1.63613
1.61736
1.59901
1.58108
1.56354
1.54642
1.52969
1.51336
1.49743
2.90451
2.956
2.97629
2.9693
2.94466
2.90666
2.85891
2.80491
2.74751
2.68884
2.63042
2.57329
2.51811
2.46526
2.41493
2.36714
2.32185
2.27895
2.2383
2.19972
2.16307
2.12816
2.09486
2.06301
2.03248
2.00315
1.9749
1.94764
1.92128
1.89574
1.87096
1.84687
1.82342
1.80056
1.77826
1.75649
1.73521
1.71441
1.69406
1.67415
1.65466
1.63559
1.61692
1.59866
1.58078
1.5633
1.54621
1.52951
1.51319
1.49726
3.0105
3.07096
3.08991
3.07386
3.03661
2.98461
2.92291
2.85595
2.78711
2.71868
2.65217
2.58848
2.52808
2.47116
2.4177
2.36755
2.32052
2.27637
2.23484
2.1957
2.15871
2.12365
2.09032
2.05854
2.02815
1.999
1.97097
1.94395
1.91784
1.89256
1.86802
1.84417
1.82096
1.79832
1.77623
1.75465
1.73355
1.7129
1.6927
1.67291
1.65354
1.63456
1.61598
1.59778
1.57996
1.56252
1.54545
1.52876
1.51244
1.4965
3.14536
3.21626
3.23045
3.19945
3.14354
3.07226
2.99238
2.90936
2.82693
2.7474
2.67202
2.6014
2.53569
2.47475
2.41831
2.366
2.31745
2.27226
2.23007
2.19054
2.15337
2.11828
2.08503
2.05341
2.02323
1.99434
1.96658
1.93983
1.914
1.88899
1.86471
1.84111
1.81813
1.79571
1.77382
1.75242
1.73149
1.71099
1.69092
1.67125
1.65197
1.63308
1.61456
1.59641
1.57863
1.56121
1.54416
1.52747
1.51114
1.49518
3.32202
3.40362
3.40604
3.35037
3.26684
3.1691
3.06579
2.96317
2.86499
2.77314
2.68837
2.61072
2.53983
2.47515
2.41607
2.36196
2.31222
2.26629
2.22371
2.18402
2.14687
2.11192
2.0789
2.04755
2.01768
1.98911
1.96168
1.93526
1.90973
1.88502
1.86102
1.83768
1.81494
1.79274
1.77105
1.74983
1.72905
1.70869
1.68874
1.66917
1.64998
1.63115
1.61269
1.59458
1.57683
1.55942
1.54237
1.52567
1.50933
1.49334
3.56274
3.65086
3.6272
3.53091
3.40671
3.27306
3.1401
3.01417
2.89831
2.79339
2.69915
2.61477
2.53921
2.47137
2.41022
2.35482
2.30436
2.25811
2.21548
2.17593
2.13905
2.10444
2.07181
2.04088
2.01142
1.98326
1.95622
1.93018
1.90501
1.88062
1.85693
1.83387
1.81137
1.7894
1.76791
1.74687
1.72624
1.70602
1.68618
1.6667
1.64759
1.62882
1.6104
1.59232
1.57458
1.55719
1.54013
1.52341
1.50704
1.49101
3.90805
3.98517
3.9064
3.74361
3.56031
3.37903
3.20976
3.0573
2.92264
2.80473
2.70171
2.61155
2.53231
2.46225
2.39988
2.34394
2.29338
2.24733
2.20508
2.16604
2.12971
2.09569
2.06364
2.03328
2.00437
1.97673
1.95017
1.92457
1.89981
1.87579
1.85243
1.82967
1.80744
1.7857
1.76442
1.74355
1.72308
1.70299
1.68325
1.66387
1.64482
1.6261
1.60772
1.58966
1.57193
1.55452
1.53745
1.52071
1.5043
1.48823
4.43183
4.44605
4.25572
3.9862
3.7193
3.47721
3.26581
3.08522
2.93233
2.80295
2.69298
2.59884
2.51754
2.44665
2.38422
2.32868
2.27881
2.2336
2.19226
2.15413
2.1187
2.08554
2.05429
2.02468
1.99647
1.96945
1.94347
1.91839
1.89409
1.87049
1.8475
1.82507
1.80313
1.78164
1.76057
1.73989
1.71958
1.69961
1.67998
1.66068
1.6417
1.62303
1.60467
1.58662
1.56889
1.55147
1.53437
1.51759
1.50114
1.48502
5.2669
5.08481
4.68149
4.24891
3.86893
3.55325
3.29661
3.08934
2.92136
2.78397
2.67025
2.57487
2.49375
2.42383
2.36277
2.30878
2.26049
2.21682
2.17694
2.14018
2.106
2.07398
2.04378
2.0151
1.98773
1.96147
1.93616
1.91167
1.8879
1.86477
1.84219
1.82011
1.79848
1.77726
1.75642
1.73593
1.71578
1.69594
1.67642
1.65719
1.63827
1.61963
1.6013
1.58325
1.56551
1.54807
1.53094
1.51412
1.49762
1.48144
6.70849
5.96739
5.15915
4.49497
3.97648
3.58176
3.28437
3.058
2.88238
2.74329
2.63082
2.53803
2.46002
2.39327
2.33526
2.28409
2.23836
2.19699
2.15916
2.12422
2.09166
2.06108
2.03214
2.00459
1.9782
1.95281
1.92826
1.90445
1.88127
1.85865
1.83652
1.81483
1.79353
1.7726
1.75199
1.73171
1.71172
1.69202
1.67259
1.65345
1.63457
1.61598
1.59765
1.57961
1.56185
1.54438
1.52721
1.51035
1.49379
1.47755
9.52727
7.15176
5.52338
4.56625
3.92844
3.48766
3.1808
2.9601
2.79493
2.66694
2.56474
2.48094
2.41062
2.35042
2.29794
2.25148
2.20976
2.17182
2.13694
2.10454
2.07418
2.0455
2.01821
1.99209
1.96696
1.94265
1.91905
1.89606
1.8736
1.8516
1.83
1.80876
1.78785
1.76724
1.74691
1.72685
1.70705
1.68749
1.66818
1.64911
1.63029
1.61172
1.59341
1.57536
1.55757
1.54006
1.52284
1.50591
1.48928
1.47297
14.2955
8.34783
5.42961
4.22606
3.58768
3.19832
2.94794
2.77502
2.647
2.54726
2.46662
2.39948
2.34225
2.29247
2.24844
2.20888
2.17288
2.13973
2.10887
2.07988
2.05243
2.02624
2.00109
1.97682
1.95328
1.93035
1.90794
1.88597
1.86439
1.84315
1.8222
1.80151
1.78107
1.76086
1.74085
1.72106
1.70147
1.68208
1.66289
1.64391
1.62515
1.6066
1.58829
1.57021
1.55239
1.53483
1.51753
1.50052
1.4838
1.46739
1.01267
1.01221
1.01134
1.01027
1.00922
1.00832
1.00767
1.00733
1.00735
1.00776
1.00856
1.00976
1.01134
1.01332
1.01565
1.01834
1.02137
1.0247
1.02832
1.0322
1.03632
1.04066
1.04519
1.04989
1.05473
1.05969
1.06475
1.06988
1.07507
1.0803
1.08553
1.09077
1.09598
1.10115
1.10627
1.11132
1.11628
1.12114
1.1259
1.13053
1.13503
1.13939
1.14359
1.14764
1.15152
1.15523
1.15876
1.16211
1.16527
1.16823
1.17101
1.17358
1.17596
1.17814
1.18012
1.18189
1.18347
1.18485
1.18603
1.18701
1.1878
1.1884
1.18881
1.18903
1.18907
1.18893
1.18861
1.18812
1.18746
1.18663
1.18565
1.18451
1.18322
1.18178
1.1802
1.17848
1.17663
1.17465
1.17255
1.17033
1.16799
1.16554
1.16299
1.16034
1.1576
1.15476
1.15184
1.14883
1.14574
1.14258
1.13935
1.13605
1.13269
1.12928
1.1258
1.12228
1.1187
1.11508
1.11142
1.10773
1.10399
1.10022
1.09643
1.0926
1.08876
1.08488
1.08099
1.07709
1.07316
1.06923
1.06528
1.06132
1.05736
1.05339
1.04941
1.04544
1.04146
1.03748
1.0335
1.02953
1.02556
1.02159
1.01763
1.01368
1.00973
1.00579
1.00187
0.997948
0.99404
0.990144
0.986259
0.982387
0.978527
0.974681
0.970847
0.967028
0.963223
0.959431
0.955655
0.951893
0.948146
0.944414
0.940698
0.936996
0.93331
0.929639
0.925983
0.922342
0.918717
0.915107
0.911512
0.907932
0.904367
0.900817
0.897281
0.89376
0.890254
0.886761
0.883283
0.879819
0.876368
0.872931
0.869508
0.866097
0.862699
0.859314
0.855942
0.852582
0.849234
0.845897
0.842573
0.83926
0.835957
0.832666
0.829386
0.826116
0.822856
0.819606
0.816366
0.813135
0.809914
0.806702
0.803499
0.800304
0.797118
0.79394
0.79077
0.787608
0.784453
0.781306
0.778166
0.775032
0.771906
0.768786
0.765672
0.762565
0.759463
0.756367
0.753277
0.750192
0.747113
0.744038
0.740969
0.737904
0.734844
0.731788
0.728736
0.725688
0.722645
0.719605
0.716569
0.713536
0.710507
0.707481
0.704458
0.701438
0.698421
0.695406
0.692395
0.689385
0.686379
0.683374
0.680372
0.677371
0.674373
0.671377
0.668382
0.665389
0.662398
0.659408
0.65642
0.653433
0.650447
0.647463
0.64448
0.641498
0.638516
0.635536
0.632557
0.629578
0.6266
0.623623
0.620647
0.617671
0.614695
0.61172
0.608746
0.605772
0.602798
0.599825
0.596851
0.593879
0.590906
0.587933
0.584961
0.581989
0.579016
0.576044
0.573072
0.570099
0.567127
0.564155
0.561182
0.558209
0.555237
0.552264
0.549291
0.546317
0.543344
0.54037
0.537396
0.534422
0.531447
0.528472
0.525497
0.522522
0.519546
0.51657
0.513594
0.510617
0.50764
0.504663
0.501685
0.498707
0.495729
0.49275
0.489771
0.486792
0.483812
0.480832
0.477851
0.47487
0.471889
0.468907
0.465925
0.462943
0.45996
0.456977
0.453993
0.451009
0.448025
0.445041
0.442056
0.43907
0.436085
0.433099
0.430112
0.427126
0.424139
0.421151
0.418164
0.415176
0.412188
0.409199
0.40621
0.403221
0.400231
0.397242
0.394251
0.391261
0.38827
0.38528
0.382288
0.379297
0.376305
0.373313
0.370321
0.367329
0.364336
0.361343
0.35835
0.355356
0.352363
0.349369
0.346375
0.343381
0.340386
0.337392
0.334397
0.331402
0.328407
0.325412
0.322416
0.319421
0.316425
0.313429
0.310433
0.307437
0.30444
0.301444
0.298447
0.29545
0.292453
0.289456
0.286459
0.283461
0.280464
0.277466
0.274469
0.271471
0.268473
0.265475
0.262477
0.259479
0.256481
0.253483
0.250484
0.247486
0.244487
0.241489
0.23849
0.235491
0.232492
0.229494
0.226495
0.223496
0.220497
0.217497
0.214498
0.211499
0.2085
0.205501
0.202501
0.199502
0.196502
0.193503
0.190504
0.187504
0.184504
0.181505
0.178505
0.175506
0.172506
0.169506
0.166506
0.163507
0.160507
0.157507
0.154507
0.151507
0.148508
0.145508
0.142508
0.139508
0.136508
0.133508
0.130508
0.127508
0.124508
0.121508
0.118508
0.115508
0.112508
0.109508
0.106508
0.103508
0.100508
0.097508
0.0945079
0.0915079
0.0885079
0.0855078
0.0825078
0.0795077
0.0765076
0.0735076
0.0705075
0.0675075
0.0645074
0.0615073
0.0585073
0.0555072
0.0525072
0.0495071
0.0465071
0.043507
0.040507
0.0375069
0.0345068
0.0315067
0.0285066
0.0255065
0.0225063
0.0195061
0.0165059
0.0135056
0.0105053
0.00750482
0.00450417
0.00150231
1.01312
1.01267
1.01198
1.01118
1.01041
1.00977
1.00935
1.00919
1.00934
1.00983
1.01067
1.01187
1.01342
1.01532
1.01756
1.02013
1.02301
1.02618
1.02962
1.03331
1.03723
1.04136
1.04568
1.05016
1.05478
1.05952
1.06436
1.06928
1.07425
1.07927
1.0843
1.08934
1.09436
1.09935
1.10429
1.10917
1.11397
1.11868
1.12329
1.12779
1.13217
1.13641
1.14051
1.14446
1.14825
1.15188
1.15533
1.15861
1.16172
1.16464
1.16737
1.16991
1.17226
1.17442
1.17639
1.17816
1.17974
1.18112
1.18231
1.18331
1.18412
1.18475
1.18518
1.18544
1.18552
1.18542
1.18514
1.1847
1.18409
1.18332
1.18239
1.18131
1.18008
1.1787
1.17718
1.17553
1.17374
1.17183
1.16979
1.16764
1.16537
1.16299
1.16051
1.15793
1.15525
1.15248
1.14963
1.14669
1.14367
1.14058
1.13741
1.13418
1.13089
1.12753
1.12412
1.12066
1.11715
1.11359
1.10999
1.10635
1.10267
1.09896
1.09521
1.09144
1.08765
1.08383
1.07999
1.07613
1.07225
1.06836
1.06446
1.06054
1.05662
1.05269
1.04876
1.04482
1.04087
1.03693
1.03299
1.02905
1.02511
1.02117
1.01724
1.01332
1.0094
1.00549
1.00159
0.997697
0.993813
0.989939
0.986077
0.982225
0.978386
0.974558
0.970743
0.966941
0.963153
0.959377
0.955616
0.951869
0.948135
0.944416
0.940712
0.937022
0.933347
0.929686
0.92604
0.922409
0.918792
0.91519
0.911603
0.90803
0.904471
0.900927
0.897398
0.893882
0.89038
0.886892
0.883418
0.879958
0.876511
0.873077
0.869656
0.866247
0.862852
0.859469
0.856098
0.852739
0.849392
0.846057
0.842733
0.83942
0.836118
0.832827
0.829546
0.826276
0.823016
0.819765
0.816525
0.813293
0.810071
0.806858
0.803653
0.800457
0.79727
0.79409
0.790919
0.787755
0.784598
0.781449
0.778307
0.775172
0.772044
0.768922
0.765806
0.762696
0.759592
0.756495
0.753402
0.750315
0.747233
0.744157
0.741085
0.738018
0.734955
0.731897
0.728843
0.725793
0.722747
0.719705
0.716667
0.713632
0.7106
0.707572
0.704547
0.701525
0.698505
0.695489
0.692475
0.689464
0.686455
0.683448
0.680444
0.677442
0.674441
0.671443
0.668447
0.665452
0.662459
0.659467
0.656477
0.653488
0.650501
0.647515
0.64453
0.641546
0.638563
0.635581
0.632601
0.62962
0.626641
0.623663
0.620685
0.617707
0.61473
0.611754
0.608778
0.605803
0.602828
0.599853
0.596879
0.593905
0.590931
0.587957
0.584984
0.582011
0.579037
0.576064
0.573091
0.570117
0.567144
0.564171
0.561198
0.558224
0.55525
0.552277
0.549303
0.546329
0.543355
0.54038
0.537406
0.534431
0.531456
0.52848
0.525505
0.522529
0.519552
0.516576
0.513599
0.510622
0.507645
0.504667
0.501689
0.49871
0.495732
0.492753
0.489773
0.486793
0.483813
0.480833
0.477852
0.474871
0.471889
0.468907
0.465925
0.462942
0.459959
0.456976
0.453992
0.451008
0.448024
0.445039
0.442054
0.439068
0.436082
0.433096
0.43011
0.427123
0.424136
0.421149
0.418161
0.415173
0.412184
0.409196
0.406207
0.403218
0.400228
0.397238
0.394248
0.391258
0.388267
0.385276
0.382285
0.379293
0.376302
0.37331
0.370317
0.367325
0.364332
0.361339
0.358346
0.355353
0.352359
0.349366
0.346372
0.343377
0.340383
0.337388
0.334394
0.331399
0.328404
0.325408
0.322413
0.319417
0.316422
0.313426
0.31043
0.307433
0.304437
0.301441
0.298444
0.295447
0.29245
0.289453
0.286456
0.283459
0.280461
0.277464
0.274466
0.271468
0.268471
0.265473
0.262475
0.259477
0.256479
0.25348
0.250482
0.247484
0.244485
0.241487
0.238488
0.235489
0.23249
0.229492
0.226493
0.223494
0.220495
0.217496
0.214496
0.211497
0.208498
0.205499
0.2025
0.1995
0.196501
0.193501
0.190502
0.187503
0.184503
0.181503
0.178504
0.175504
0.172504
0.169505
0.166505
0.163505
0.160506
0.157506
0.154506
0.151506
0.148507
0.145507
0.142507
0.139507
0.136507
0.133507
0.130507
0.127507
0.124507
0.121507
0.118507
0.115507
0.112507
0.109507
0.106507
0.103507
0.100507
0.0975073
0.0945073
0.0915073
0.0885073
0.0855073
0.0825072
0.0795072
0.0765071
0.0735071
0.070507
0.067507
0.0645069
0.0615069
0.0585068
0.0555068
0.0525067
0.0495067
0.0465067
0.0435066
0.0405065
0.0375065
0.0345064
0.0315063
0.0285061
0.0255059
0.0225057
0.0195055
0.0165053
0.013505
0.0105045
0.00750401
0.00450345
0.00150203
1.01399
1.01335
1.01266
1.01197
1.01134
1.01084
1.01055
1.0105
1.01074
1.01129
1.01215
1.01335
1.01488
1.01673
1.0189
1.02138
1.02415
1.02719
1.0305
1.03405
1.03782
1.04178
1.04593
1.05024
1.05469
1.05926
1.06393
1.06868
1.07349
1.07833
1.08321
1.08809
1.09296
1.0978
1.1026
1.10734
1.11202
1.11661
1.12111
1.1255
1.12977
1.13392
1.13794
1.14181
1.14553
1.14909
1.15249
1.15572
1.15878
1.16166
1.16436
1.16687
1.1692
1.17134
1.1733
1.17506
1.17664
1.17803
1.17923
1.18024
1.18107
1.18171
1.18217
1.18246
1.18256
1.1825
1.18226
1.18185
1.18129
1.18056
1.17967
1.17864
1.17745
1.17613
1.17466
1.17306
1.17132
1.16947
1.16748
1.16538
1.16317
1.16085
1.15843
1.1559
1.15328
1.15057
1.14777
1.14488
1.14192
1.13888
1.13577
1.13259
1.12935
1.12605
1.12269
1.11928
1.11582
1.11231
1.10876
1.10516
1.10153
1.09787
1.09417
1.09045
1.08669
1.08291
1.07911
1.0753
1.07146
1.06761
1.06374
1.05986
1.05598
1.05208
1.04818
1.04427
1.04036
1.03645
1.03253
1.02862
1.02471
1.0208
1.0169
1.013
1.0091
1.00522
1.00134
0.997464
0.993601
0.989747
0.985903
0.98207
0.978247
0.974436
0.970637
0.96685
0.963076
0.959315
0.955566
0.951832
0.94811
0.944403
0.940709
0.937029
0.933363
0.929712
0.926074
0.922451
0.918842
0.915248
0.911667
0.908101
0.904548
0.90101
0.897485
0.893974
0.890477
0.886993
0.883523
0.880066
0.876622
0.873191
0.869772
0.866367
0.862973
0.859592
0.856223
0.852866
0.84952
0.846185
0.842862
0.83955
0.836249
0.832958
0.829677
0.826407
0.823147
0.819896
0.816655
0.813423
0.8102
0.806986
0.803781
0.800584
0.797395
0.794215
0.791042
0.787877