/*--------------------------------*- C++ -*----------------------------------*\
| =========                 |                                                 |
| \\      /  F ield         | OpenFOAM: The Open Source CFD Toolbox           |
|  \\    /   O peration     | Version:  2306                                  |
|   \\  /    A nd           | Website:  www.openfoam.com                      |
|    \\/     M anipulation  |                                                 |
\*---------------------------------------------------------------------------*/
FoamFile
{
    version     2.0;
    format      ascii;
    arch        "LSB;label=32;scalar=64";
    class       volScalarField;
    location    "3.21";
    object      p;
}
// * * * * * * * * * * * * * * * * * * * * * * * * * * * * * * * * * * * * * //

dimensions      [0 2 -2 0 0 0 0];

internalField   nonuniform List<scalar> 
1900
(
0.0582278
0.0339989
0.013599
-0.00175424
-0.0127908
-0.0233725
-0.0338484
-0.0460625
-0.0586811
-0.0728237
0.0289677
0.020767
0.00944381
-0.0021197
-0.0131604
-0.0233697
-0.0338327
-0.0443828
-0.055924
-0.0670166
0.0198826
0.0153899
0.00786943
-0.00150619
-0.0115999
-0.0215911
-0.0313845
-0.0409531
-0.0503987
-0.0595088
0.0141897
0.0111152
0.0054627
-0.00218983
-0.011047
-0.020294
-0.0294928
-0.0384153
-0.047018
-0.0551838
0.0119757
0.00944004
0.00470089
-0.00194769
-0.00992695
-0.0185308
-0.0272055
-0.0356277
-0.0436448
-0.0511665
0.01262
0.01014
0.00553084
-0.00093172
-0.00866661
-0.0169651
-0.0252674
-0.0332555
-0.0408038
-0.0478828
0.016085
0.0131407
0.00786299
0.000785251
-0.00726722
-0.0155434
-0.0235768
-0.0311894
-0.0383721
-0.0451588
0.0227921
0.018499
0.0116063
0.00314535
-0.00566331
-0.0140724
-0.0218854
-0.0291954
-0.0361507
-0.0428125
0.0329398
0.0248437
0.0144141
0.0039633
-0.00532927
-0.0134217
-0.0207657
-0.0277829
-0.0346359
-0.0412834
0.0617931
0.0391243
0.019425
0.00537382
-0.00426745
-0.0119412
-0.0191427
-0.0263259
-0.0334401
-0.0402786
-0.0961504
-0.0961843
-0.096227
-0.0962781
-0.0963349
-0.0963974
-0.096465
-0.096537
-0.0966118
-0.0966881
-0.0967643
-0.0968392
-0.0969112
-0.0969789
-0.0970411
-0.0970966
-0.0971442
-0.097183
-0.0972122
-0.0972311
-0.0972392
-0.0972361
-0.0972217
-0.0971959
-0.0971587
-0.0971106
-0.0970522
-0.0969846
-0.0969096
-0.0968297
-0.0967482
-0.0966694
-0.0965977
-0.0965369
-0.096488
-0.0964473
-0.0964033
-0.0963343
-0.0962076
-0.0959811
-0.0956072
-0.0950359
-0.0942154
-0.093087
-0.0915798
-0.0896054
-0.0870604
-0.0838299
-0.079788
-0.0748373
-0.0689185
-0.0620141
-0.0541634
-0.045456
-0.0360127
-0.0259976
-0.01561
-0.00508165
0.00536171
0.0154905
0.025091
0.0339697
0.0419654
0.0489549
0.0548565
0.0596291
0.0632655
0.0657946
0.067271
0.0677713
0.0673862
0.0662207
0.064381
0.061976
0.0591061
0.0558689
0.0523472
0.04862
0.0447479
0.0407894
0.036783
0.0327686
0.0287651
0.0247979
0.0208684
0.0169928
0.0131563
0.00937126
0.00560606
0.00187933
-0.0961474
-0.0961773
-0.0962028
-0.0962417
-0.09629
-0.0963463
-0.0964092
-0.0964769
-0.096548
-0.0966209
-0.0966943
-0.0967667
-0.0968366
-0.0969025
-0.0969632
-0.0970172
-0.0970636
-0.0971012
-0.0971291
-0.0971467
-0.0971534
-0.0971486
-0.0971322
-0.0971039
-0.0970638
-0.097012
-0.096949
-0.0968755
-0.0967925
-0.0967015
-0.0966045
-0.096504
-0.0964028
-0.0963035
-0.096207
-0.0961116
-0.0960103
-0.0958897
-0.0957287
-0.0954988
-0.0951647
-0.0946842
-0.0940055
-0.0930632
-0.0917729
-0.0900278
-0.0876971
-0.0846368
-0.0807245
-0.0758751
-0.0700622
-0.0632741
-0.0555179
-0.0468604
-0.0374327
-0.027411
-0.0169935
-0.00642237
0.0040716
0.0142535
0.0239027
0.0328319
0.0408686
0.0478883
0.053816
0.0586124
0.062269
0.0648152
0.0663064
0.0668264
0.0664664
0.0653316
0.0635255
0.0611588
0.0583296
0.0551376
0.0516628
0.0479864
0.0441652
0.0402613
0.0363076
0.0323494
0.028398
0.0244864
0.0206059
0.0167833
0.0129912
0.00925649
0.00553506
0.00186446
-0.0960292
-0.0961106
-0.0961541
-0.096205
-0.0962584
-0.0963166
-0.0963811
-0.0964505
-0.0965235
-0.0965988
-0.0966747
-0.0967497
-0.0968223
-0.096891
-0.0969542
-0.0970108
-0.0970593
-0.0970988
-0.0971282
-0.0971467
-0.0971538
-0.097149
-0.0971322
-0.0971031
-0.097062
-0.0970091
-0.096945
-0.0968701
-0.0967854
-0.0966916
-0.09659
-0.0964822
-0.0963697
-0.0962539
-0.0961357
-0.0960149
-0.09589
-0.0957576
-0.0956114
-0.0954375
-0.0952114
-0.094896
-0.0944336
-0.093741
-0.092709
-0.0912087
-0.0890931
-0.086218
-0.0824812
-0.0777631
-0.0719955
-0.0651793
-0.0573683
-0.0486605
-0.0391894
-0.0291335
-0.0186574
-0.0080835
0.00240086
0.0125659
0.0221945
0.0310964
0.0391037
0.0460958
0.0519917
0.0567565
0.0603837
0.0629078
0.0643849
0.064901
0.0645473
0.0634326
0.0616591
0.0593394
0.0565688
0.0534489
0.0500557
0.0464728
0.0427522
0.0389583
0.0351195
0.0312839
0.0274576
0.0236771
0.0199288
0.0162423
0.0125855
0.00898547
0.00539371
0.00184161
-0.0961175
-0.0961885
-0.0961901
-0.0962125
-0.0962543
-0.0963126
-0.0963819
-0.0964583
-0.096539
-0.0966221
-0.0967059
-0.0967883
-0.0968677
-0.0969424
-0.097011
-0.0970719
-0.097124
-0.0971659
-0.0971968
-0.0972159
-0.0972229
-0.0972173
-0.097199
-0.097168
-0.0971242
-0.097068
-0.0969997
-0.0969195
-0.0968278
-0.0967251
-0.0966116
-0.0964874
-0.0963537
-0.0962132
-0.09607
-0.0959294
-0.0957968
-0.0956762
-0.0955671
-0.0954618
-0.0953407
-0.0951673
-0.0948735
-0.0943582
-0.0934938
-0.0921501
-0.0901738
-0.0874099
-0.0837241
-0.0790498
-0.0733239
-0.0665542
-0.0587903
-0.0501348
-0.0407299
-0.0307531
-0.0204118
-0.00996218
0.00036765
0.0103556
0.019788
0.0284811
0.0362779
0.0430666
0.0487707
0.053361
0.056837
0.0592394
0.0606273
0.0610898
0.0607186
0.0596242
0.0579063
0.0556762
0.053025
0.0500519
0.0468284
0.0434352
0.0399207
0.0363464
0.032738
0.0291408
0.0255601
0.0220292
0.0185353
0.0151037
0.0117053
0.00836027
0.00502386
0.00171623
-0.0957905
-0.0959942
-0.0960822
-0.0961825
-0.096277
-0.0963659
-0.096454
-0.0965444
-0.096637
-0.0967302
-0.0968223
-0.0969117
-0.0969967
-0.0970756
-0.0971471
-0.0972096
-0.097262
-0.0973031
-0.0973319
-0.0973478
-0.0973505
-0.0973399
-0.0973161
-0.0972794
-0.0972299
-0.0971678
-0.0970936
-0.0970075
-0.0969094
-0.0967992
-0.0966767
-0.0965417
-0.0963948
-0.0962392
-0.0960819
-0.0959314
-0.0957969
-0.0956866
-0.095603
-0.0955374
-0.095464
-0.0953578
-0.0951363
-0.0946848
-0.0938715
-0.0925485
-0.0905789
-0.0878197
-0.0841513
-0.0794949
-0.0738082
-0.0671029
-0.0594387
-0.0509234
-0.0417051
-0.0319677
-0.0219215
-0.011801
-0.00183907
0.00774813
0.0167591
0.0250224
0.032396
0.0387808
0.0441123
0.0483707
0.0515653
0.0537436
0.0549698
0.0553348
0.0549306
0.0538647
0.0522339
0.0501435
0.0476795
0.0449337
0.041973
0.0388702
0.0356705
0.0324281
0.0291672
0.0259264
0.0227119
0.01955
0.0164317
0.0133744
0.0103559
0.00738738
0.00443547
0.00151143
-0.0966273
-0.0966467
-0.0965411
-0.0964912
-0.0964967
-0.0965498
-0.0966329
-0.096729
-0.0968272
-0.0969239
-0.0970174
-0.097106
-0.0971884
-0.0972631
-0.0973289
-0.0973848
-0.0974297
-0.0974626
-0.0974825
-0.0974892
-0.0974827
-0.0974631
-0.097431
-0.0973867
-0.0973303
-0.097262
-0.0971826
-0.0970921
-0.0969901
-0.0968761
-0.0967495
-0.0966097
-0.0964565
-0.0962944
-0.0961344
-0.095984
-0.0958515
-0.0957444
-0.0956644
-0.0956013
-0.0955223
-0.0953736
-0.095091
-0.0945666
-0.0936687
-0.092258
-0.090197
-0.0873576
-0.0836332
-0.0789567
-0.0732998
-0.0666825
-0.0591742
-0.0508904
-0.0419854
-0.0326454
-0.0230789
-0.0135063
-0.00414652
0.0047983
0.0131463
0.0207452
0.0274739
0.0332512
0.0380308
0.0418063
0.0446001
0.0464666
0.0474755
0.0477166
0.0472807
0.0462682
0.0447704
0.042882
0.0406823
0.0382512
0.0356495
0.0329388
0.0301601
0.0273574
0.0245537
0.0217782
0.0190387
0.0163532
0.0137171
0.0111398
0.00860658
0.00612153
0.00366298
0.00123525
-0.0952846
-0.0959371
-0.096138
-0.0963917
-0.0966042
-0.096764
-0.0968826
-0.0969791
-0.097067
-0.09715
-0.0972285
-0.0973016
-0.0973683
-0.0974275
-0.0974782
-0.0975196
-0.0975512
-0.0975717
-0.09758
-0.097576
-0.0975597
-0.0975315
-0.0974915
-0.0974403
-0.0973776
-0.0973036
-0.0972206
-0.0971279
-0.0970246
-0.0969098
-0.0967831
-0.0966442
-0.0964929
-0.0963288
-0.0961565
-0.0959887
-0.0958324
-0.09569
-0.0955567
-0.0954169
-0.0952366
-0.0949636
-0.0945235
-0.0938137
-0.0927121
-0.0910903
-0.0888242
-0.0858059
-0.0819507
-0.0772085
-0.0715677
-0.0650624
-0.0577729
-0.0498229
-0.0413701
-0.0325987
-0.0237085
-0.0149042
-0.00638159
0.00168256
0.0091362
0.0158548
0.0217451
0.0267496
0.0308442
0.034038
0.0363659
0.0378864
0.0386713
0.0388046
0.0383719
0.037462
0.0361572
0.0345383
0.0326752
0.0306336
0.0284665
0.0262231
0.0239391
0.0216482
0.0193709
0.017128
0.0149279
0.0127813
0.0106874
0.00864948
0.00665953
0.00471605
0.00280759
0.000933923
-0.100008
-0.0986315
-0.0980011
-0.097565
-0.0973353
-0.0972423
-0.0972263
-0.0972456
-0.0972787
-0.0973181
-0.0973608
-0.097404
-0.0974458
-0.0974846
-0.0975188
-0.0975466
-0.0975676
-0.0975777
-0.0975769
-0.0975657
-0.0975446
-0.0975128
-0.0974705
-0.0974175
-0.0973535
-0.097276
-0.0971834
-0.0970789
-0.096962
-0.0968303
-0.0966817
-0.0965148
-0.096329
-0.0961251
-0.0959067
-0.0956786
-0.0954432
-0.0951975
-0.0949308
-0.0946217
-0.0942332
-0.0937102
-0.0929788
-0.091947
-0.0905092
-0.088556
-0.0859853
-0.082714
-0.0786845
-0.0738696
-0.0682782
-0.0619596
-0.055003
-0.0475336
-0.0397052
-0.0316925
-0.0236774
-0.0158405
-0.00834958
-0.0013495
0.00504537
0.0107448
0.0156882
0.0198439
0.0232095
0.0258062
0.0276763
0.0288767
0.0294748
0.029544
0.0291601
0.028398
0.0273293
0.0260196
0.024528
0.0229064
0.0211993
0.0194443
0.017672
0.0159065
0.0141666
0.0124648
0.0108106
0.00920835
0.00766082
0.0061661
0.00472245
0.00332364
0.00196547
0.000640988
-0.0941494
-0.0952526
-0.096094
-0.0967062
-0.0970206
-0.0971347
-0.0971637
-0.0971702
-0.0971798
-0.0972037
-0.0972366
-0.0972723
-0.0973077
-0.0973414
-0.0973723
-0.0973987
-0.0974206
-0.0974375
-0.0974412
-0.0974293
-0.0974036
-0.0973659
-0.0973148
-0.097248
-0.0971636
-0.0970599
-0.0969356
-0.0967904
-0.0966226
-0.0964297
-0.0962088
-0.0959572
-0.0956731
-0.0953553
-0.095003
-0.0946159
-0.0941912
-0.0937213
-0.0931909
-0.0925746
-0.0918361
-0.0909252
-0.0897771
-0.0883159
-0.0864584
-0.0841216
-0.08123
-0.0777235
-0.0735655
-0.0687527
-0.0633154
-0.0573175
-0.0508539
-0.0440466
-0.0370365
-0.0299761
-0.0230172
-0.0163048
-0.00996716
-0.00411433
0.00117036
0.00582905
0.00983101
0.013166
0.0158461
0.0178983
0.0193653
0.0202969
0.0207519
0.0207902
0.0204773
0.0198747
0.019044
0.0180375
0.0169047
0.0156846
0.0144144
0.0131206
0.0118299
0.0105574
0.00932072
0.00812518
0.00698171
0.00588824
0.00485165
0.00386425
0.00293107
0.00204027
0.00119652
0.000384351
-0.116893
-0.101947
-0.100011
-0.0985295
-0.0976099
-0.0971767
-0.0969973
-0.0969282
-0.0968987
-0.0968922
-0.0969192
-0.09697
-0.0970273
-0.0970804
-0.0971259
-0.0971628
-0.0971898
-0.097204
-0.0971993
-0.0971725
-0.0971234
-0.0970516
-0.096955
-0.0968307
-0.0966756
-0.0964868
-0.0962618
-0.0959979
-0.0956925
-0.095343
-0.0949472
-0.0945019
-0.0940046
-0.0934528
-0.0928442
-0.0921755
-0.0914417
-0.0906331
-0.089734
-0.0887195
-0.0875535
-0.0861906
-0.0845793
-0.0826633
-0.0803848
-0.0776894
-0.0745313
-0.0708802
-0.0667265
-0.0620858
-0.0569988
-0.0515306
-0.0457672
-0.0398134
-0.0337857
-0.0278065
-0.021994
-0.0164566
-0.0112865
-0.00656093
-0.00233607
0.00135491
0.00450027
0.00710084
0.00917409
0.0107472
0.0118605
0.0125565
0.0128854
0.0128963
0.0126454
0.0121836
0.0115642
0.0108287
0.0100186
0.00916163
0.00828803
0.00741384
0.00656099
0.00573618
0.00495578
0.00421852
0.00353738
0.00290379
0.0023292
0.00179869
0.00132511
0.000888547
0.000505057
0.000146898
-0.0843569
-0.0908533
-0.0933661
-0.0941985
-0.0946307
-0.095016
-0.0953708
-0.0956662
-0.09592
-0.0961394
-0.096325
-0.0964793
-0.0966058
-0.0967076
-0.0967862
-0.096841
-0.0968696
-0.0968676
-0.0968304
-0.0967536
-0.0966347
-0.0964715
-0.0962622
-0.0960044
-0.0956957
-0.0953337
-0.0949162
-0.0944409
-0.0939051
-0.093305
-0.092637
-0.0918983
-0.0910872
-0.0902018
-0.0892396
-0.0881972
-0.0870689
-0.0858457
-0.0845138
-0.0830534
-0.0814387
-0.0796384
-0.0776179
-0.0753415
-0.0727746
-0.0698871
-0.066657
-0.0630742
-0.0591433
-0.0548862
-0.0503414
-0.045563
-0.0406189
-0.0355914
-0.0305713
-0.0256533
-0.0209291
-0.016482
-0.0123801
-0.00867308
-0.00539189
-0.00255291
-0.000158812
0.00179661
0.00333222
0.00447542
0.00526449
0.00573868
0.00594301
0.00591991
0.00571761
0.00537779
0.00494502
0.0044519
0.0039327
0.00340634
0.00289541
0.00240619
0.0019538
0.0015362
0.00116693
0.000839276
0.000567698
0.000338519
0.000167081
3.1751e-05
-4.72346e-05
-9.89876e-05
-9.48015e-05
-7.46404e-05
-0.0782903
-0.0860812
-0.0900733
-0.0915016
-0.0919309
-0.0922554
-0.0927354
-0.093329
-0.093922
-0.0944395
-0.0948614
-0.0951974
-0.0954658
-0.0956807
-0.0958484
-0.0959684
-0.0960362
-0.0960454
-0.0959899
-0.0958644
-0.0956652
-0.0953898
-0.095037
-0.0946059
-0.0940959
-0.0935066
-0.0928376
-0.0920883
-0.0912581
-0.090346
-0.0893513
-0.0882736
-0.0871128
-0.0858687
-0.0845404
-0.0831259
-0.0816216
-0.0800218
-0.0783177
-0.0764974
-0.0745455
-0.0724436
-0.0701705
-0.0677044
-0.0650256
-0.0621184
-0.0589735
-0.0555901
-0.0519782
-0.0481602
-0.0441714
-0.0400606
-0.0358864
-0.0317121
-0.0276047
-0.0236333
-0.0198664
-0.0163659
-0.0131804
-0.0103437
-0.00787547
-0.00578223
-0.00405517
-0.00267586
-0.00162078
-0.000862284
-0.000365324
-9.11329e-05
4.90646e-06
-3.48586e-05
-0.000169303
-0.000367744
-0.000600315
-0.000845112
-0.00107757
-0.00128538
-0.00145453
-0.001586
-0.00167361
-0.00172688
-0.00173861
-0.00171824
-0.00165308
-0.00155759
-0.00141535
-0.0012489
-0.0010337
-0.000802242
-0.000516207
-0.000224286
-0.0680053
-0.0752198
-0.0805637
-0.0840336
-0.0861484
-0.0875726
-0.0887551
-0.0898742
-0.0909416
-0.0919118
-0.092748
-0.093441
-0.0940015
-0.0944461
-0.0947876
-0.0950317
-0.0951782
-0.0952236
-0.0951634
-0.0949938
-0.0947123
-0.0943181
-0.0938118
-0.0931951
-0.0924701
-0.0916395
-0.0907061
-0.0896727
-0.0885419
-0.0873161
-0.0859977
-0.0845887
-0.0830908
-0.0815057
-0.0798342
-0.0780765
-0.0762318
-0.0742977
-0.0722708
-0.0701459
-0.0679164
-0.0655745
-0.0631121
-0.0605205
-0.0577912
-0.0549175
-0.0518966
-0.0487315
-0.0454326
-0.0420198
-0.0385246
-0.0349905
-0.0314705
-0.0280219
-0.0247012
-0.0215591
-0.0186367
-0.0159654
-0.0135711
-0.0114787
-0.00970985
-0.00826851
-0.00712882
-0.00624631
-0.00558136
-0.00510787
-0.00480366
-0.00463796
-0.00456563
-0.00454029
-0.00452827
-0.004516
-0.00449755
-0.00446918
-0.00442142
-0.00434776
-0.00424028
-0.00410009
-0.00392491
-0.00372043
-0.0034839
-0.00322419
-0.00293569
-0.00262945
-0.00229412
-0.00194487
-0.0015608
-0.00116543
-0.000722665
-0.000278165
-0.0626932
-0.0693098
-0.0747709
-0.0789689
-0.0820275
-0.0842593
-0.086007
-0.0875101
-0.0888767
-0.0901242
-0.091233
-0.0921828
-0.0929674
-0.0935924
-0.0940674
-0.0943997
-0.0945924
-0.0946445
-0.0945534
-0.0943166
-0.0939329
-0.0934029
-0.0927289
-0.0919147
-0.0909654
-0.0898867
-0.0886844
-0.0873649
-0.085934
-0.0843975
-0.0827602
-0.0810267
-0.0792006
-0.0772854
-0.075284
-0.073199
-0.0710327
-0.0687871
-0.0664638
-0.0640641
-0.0615894
-0.0590409
-0.0564205
-0.0537301
-0.050971
-0.0481449
-0.0452548
-0.0423055
-0.0393052
-0.0362678
-0.0332167
-0.0301887
-0.0272357
-0.0244201
-0.0218009
-0.0194166
-0.0172759
-0.0153622
-0.0136587
-0.0121801
-0.0109655
-0.0100328
-0.00934481
-0.00881816
-0.00837884
-0.00800745
-0.00771677
-0.00750791
-0.00734868
-0.00719312
-0.00700857
-0.00678383
-0.0065252
-0.00624918
-0.00596823
-0.00568703
-0.00540172
-0.00510816
-0.00480075
-0.00447863
-0.0041388
-0.00378381
-0.00341083
-0.00302442
-0.00261915
-0.00220093
-0.00175825
-0.00129985
-0.00080342
-0.000292211
-0.0581092
-0.0643661
-0.0698094
-0.0743408
-0.0779652
-0.080816
-0.0831048
-0.0850332
-0.0867345
-0.0882677
-0.0896407
-0.09084
-0.0918521
-0.0926717
-0.0933004
-0.0937421
-0.0939999
-0.0940746
-0.0939655
-0.0936721
-0.0931952
-0.0925372
-0.0917027
-0.0906982
-0.0895312
-0.0882105
-0.0867454
-0.085146
-0.0834217
-0.0815814
-0.079633
-0.0775835
-0.0754389
-0.0732048
-0.0708864
-0.0684893
-0.0660194
-0.0634832
-0.0608879
-0.0582413
-0.0555517
-0.0528284
-0.0500812
-0.0473213
-0.0445598
-0.0418081
-0.0390762
-0.036371
-0.0336976
-0.0310601
-0.0284673
-0.025938
-0.0235143
-0.0212651
-0.0192643
-0.0175549
-0.0161102
-0.0148461
-0.0136894
-0.0126424
-0.0117653
-0.011107
-0.0106467
-0.0102823
-0.00990538
-0.0094845
-0.0090612
-0.00867957
-0.00834259
-0.00802934
-0.00772958
-0.00742812
-0.00711066
-0.00677637
-0.00643196
-0.006083
-0.00573065
-0.00537486
-0.00501407
-0.0046473
-0.00427223
-0.00388841
-0.00349387
-0.00308922
-0.00267154
-0.00224141
-0.00179249
-0.00132423
-0.00082263
-0.00029274
-0.0544727
-0.060518
-0.065932
-0.0706358
-0.0746052
-0.0778938
-0.0806238
-0.0829418
-0.0849697
-0.08678
-0.0883991
-0.0898248
-0.0910439
-0.0920447
-0.0928208
-0.0933699
-0.0936918
-0.0937866
-0.0936543
-0.0932963
-0.0927163
-0.0919201
-0.090916
-0.0897132
-0.0883227
-0.0867564
-0.0850271
-0.0831479
-0.0811318
-0.078991
-0.0767367
-0.0743789
-0.0719264
-0.0693874
-0.0667698
-0.0640827
-0.0613358
-0.0585409
-0.0557115
-0.052863
-0.0500112
-0.0471723
-0.0443616
-0.0415962
-0.0388965
-0.036284
-0.0337739
-0.0313723
-0.0290774
-0.0268819
-0.0247756
-0.0227518
-0.020827
-0.0190543
-0.0175152
-0.0162826
-0.0153153
-0.014487
-0.013694
-0.0129198
-0.0122026
-0.0115669
-0.0110547
-0.0106386
-0.0102513
-0.00986822
-0.00951128
-0.00915648
-0.00878144
-0.00838702
-0.00797725
-0.0075632
-0.00716019
-0.00677641
-0.00640851
-0.00605372
-0.00570571
-0.00535774
-0.00500435
-0.0046427
-0.00427076
-0.00388764
-0.00349268
-0.00308624
-0.00266731
-0.00223542
-0.00178699
-0.00131862
-0.000821914
-0.000292702
-0.0515469
-0.05748
-0.0628759
-0.0676687
-0.0718378
-0.0754157
-0.0784792
-0.0811279
-0.083456
-0.0855307
-0.0873856
-0.0890263
-0.0904428
-0.0916196
-0.0925433
-0.0932043
-0.093597
-0.0937181
-0.0935665
-0.0931444
-0.0924584
-0.0915197
-0.0903417
-0.0889386
-0.0873254
-0.0855178
-0.0835324
-0.0813861
-0.0790955
-0.0766766
-0.0741442
-0.0715114
-0.0687902
-0.0659919
-0.0631277
-0.0602097
-0.057252
-0.0542715
-0.0512884
-0.0483267
-0.0454118
-0.0425678
-0.0398115
-0.0371547
-0.0346219
-0.032238
-0.0300132
-0.0279406
-0.0260066
-0.0241959
-0.0224898
-0.0208908
-0.0194117
-0.018049
-0.0168448
-0.0158192
-0.0149588
-0.0142204
-0.0135709
-0.0130184
-0.0125663
-0.0121715
-0.0117103
-0.0111425
-0.0105218
-0.00994302
-0.00943748
-0.00900642
-0.008629
-0.00826967
-0.00790873
-0.00754166
-0.00717025
-0.00679853
-0.00643377
-0.00607469
-0.005718
-0.00536031
-0.00499866
-0.00463022
-0.00425275
-0.0038654
-0.0034676
-0.00305902
-0.00263883
-0.00220594
-0.00175789
-0.00129213
-0.000804874
-0.000286215
-0.0491403
-0.055042
-0.0604332
-0.0652695
-0.0695515
-0.073318
-0.0766293
-0.0795535
-0.0821549
-0.0844846
-0.0865726
-0.0884273
-0.0900405
-0.0913952
-0.092472
-0.0932543
-0.0937297
-0.0938905
-0.0937331
-0.0932595
-0.092478
-0.0914053
-0.0900613
-0.0884678
-0.086647
-0.0846216
-0.082414
-0.080046
-0.0775383
-0.0749101
-0.0721786
-0.0693593
-0.0664662
-0.0635123
-0.0605108
-0.0574757
-0.0544232
-0.051373
-0.0483489
-0.0453799
-0.0424985
-0.0397388
-0.0371261
-0.0346711
-0.03239
-0.0302888
-0.0283546
-0.0265545
-0.0248458
-0.0232062
-0.0216524
-0.0202415
-0.0190335
-0.0180811
-0.0173522
-0.0166841
-0.0159103
-0.0149938
-0.014018
-0.0131441
-0.0124454
-0.0118927
-0.0114127
-0.0109416
-0.0104606
-0.00998563
-0.00953519
-0.00912201
-0.00872978
-0.00834362
-0.00795708
-0.00757102
-0.00718962
-0.00681497
-0.00644646
-0.00608279
-0.00572133
-0.0053589
-0.00499264
-0.00462028
-0.00423993
-0.00385032
-0.00345054
-0.00303986
-0.00261738
-0.00218182
-0.00173158
-0.00126659
-0.000786732
-0.000278078
-0.0475961
-0.0534583
-0.05881
-0.0636427
-0.0679805
-0.0718644
-0.0753458
-0.0784754
-0.0812961
-0.0838429
-0.0861367
-0.0881822
-0.0899697
-0.0914807
-0.0926929
-0.0935849
-0.0941383
-0.0943409
-0.0941871
-0.0936795
-0.0928275
-0.0916469
-0.0901616
-0.0884019
-0.0864009
-0.084192
-0.081807
-0.0792746
-0.0766204
-0.0738663
-0.0710308
-0.0681297
-0.0651764
-0.062183
-0.0591616
-0.0561247
-0.0530872
-0.0500673
-0.0470881
-0.0441789
-0.041375
-0.038719
-0.0362528
-0.0340182
-0.0320298
-0.0302684
-0.0286811
-0.0271891
-0.0257065
-0.0241713
-0.022579
-0.0209867
-0.0194991
-0.0182208
-0.0171778
-0.0162928
-0.0154993
-0.0147091
-0.0139473
-0.0132483
-0.0126368
-0.0121023
-0.0115905
-0.0110739
-0.0105543
-0.0100516
-0.00958266
-0.00914798
-0.00874015
-0.00834806
-0.0079636
-0.00758308
-0.00720585
-0.00683257
-0.00646347
-0.00609751
-0.0057327
-0.00536666
-0.00499703
-0.0046217
-0.00423888
-0.00384715
-0.00344533
-0.00303247
-0.00260753
-0.0021693
-0.00171693
-0.00125183
-0.000775472
-0.000273588
-0.0466748
-0.0525522
-0.0579017
-0.0627495
-0.0671357
-0.0711038
-0.074699
-0.0779661
-0.0809442
-0.0836571
-0.0861139
-0.0883109
-0.0902347
-0.0918654
-0.0931799
-0.0941554
-0.094773
-0.0950199
-0.0948913
-0.0943916
-0.0935344
-0.0923412
-0.0908402
-0.0890635
-0.0870455
-0.0848207
-0.0824222
-0.0798799
-0.0772205
-0.0744667
-0.0716377
-0.0687492
-0.0658149
-0.0628465
-0.0598551
-0.0568522
-0.0538508
-0.0508664
-0.0479185
-0.0450312
-0.042234
-0.0395603
-0.0370444
-0.0347139
-0.0325803
-0.0306373
-0.0288625
-0.0272066
-0.0255928
-0.023997
-0.0224237
-0.0209241
-0.0195746
-0.0184216
-0.0174576
-0.0165968
-0.0157577
-0.0149125
-0.0140877
-0.0133375
-0.0126844
-0.0121088
-0.0115737
-0.0110549
-0.0105491
-0.0100667
-0.00961151
-0.00918331
-0.00877465
-0.00837812
-0.00798916
-0.00760601
-0.00722835
-0.00685587
-0.00648767
-0.00612219
-0.00575737
-0.00539097
-0.00502083
-0.00464499
-0.00426171
-0.00386954
-0.00346717
-0.00305346
-0.00262729
-0.0021875
-0.00173323
-0.00126497
-0.000783443
-0.00027781
)
;

boundaryField
{
    fixedWalls
    {
        type            zeroGradient;
    }
    inflowWall
    {
        type            zeroGradient;
    }
    outflowWall
    {
        type            fixedValue;
        value           uniform 0;
    }
    frontAndBack
    {
        type            empty;
    }
}


// ************************************************************************* //
