/*--------------------------------*- C++ -*----------------------------------*\
| =========                 |                                                 |
| \\      /  F ield         | OpenFOAM: The Open Source CFD Toolbox           |
|  \\    /   O peration     | Version:  2306                                  |
|   \\  /    A nd           | Website:  www.openfoam.com                      |
|    \\/     M anipulation  |                                                 |
\*---------------------------------------------------------------------------*/
FoamFile
{
    version     2.0;
    format      ascii;
    arch        "LSB;label=32;scalar=64";
    class       surfaceScalarField;
    location    "0.09";
    object      phi;
}
// * * * * * * * * * * * * * * * * * * * * * * * * * * * * * * * * * * * * * //

dimensions      [0 3 -1 0 0 0 0];

oriented        oriented;

internalField   nonuniform List<scalar> 
890
(
8.50968e-05
1.49032e-05
7.2693e-05
1.24038e-05
6.72185e-05
5.47451e-06
6.80162e-05
-7.97721e-07
-9.75669e-06
7.77729e-05
0.000109705
5.198e-06
0.000117564
4.54456e-06
0.00012245
5.8896e-07
0.000126209
-4.55678e-06
-1.16036e-05
0.000128056
0.000111818
-6.62032e-06
0.000124946
-8.58285e-06
0.000133363
-7.82845e-06
0.000137067
-8.26082e-06
-1.06408e-05
0.000136104
0.000109054
-1.5674e-05
0.000114996
-1.45254e-05
0.000116524
-9.35645e-06
0.000114748
-6.48437e-06
-5.67316e-06
0.00010978
8.4326e-05
6.98006e-05
6.04442e-05
5.39598e-05
4.82866e-05
-1.69718e-06
1.69718e-06
-2.55663e-06
8.59453e-07
-1.60961e-06
-9.47027e-07
7.76257e-07
-2.38587e-06
3.91969e-06
-3.14343e-06
7.17262e-06
-3.25293e-06
1.00614e-05
-2.88878e-06
1.23377e-05
-2.27633e-06
1.39457e-05
-1.60796e-06
1.49569e-05
-1.01126e-06
1.55046e-05
-5.4766e-07
1.57324e-05
-2.27744e-07
1.57644e-05
-3.20489e-08
1.56934e-05
7.10193e-08
1.55807e-05
1.12683e-07
1.54623e-05
1.18349e-07
1.53565e-05
1.05815e-07
1.52702e-05
8.63443e-08
1.52039e-05
6.62431e-08
1.51554e-05
4.85175e-08
1.51212e-05
3.42103e-08
1.50979e-05
2.33258e-08
1.50825e-05
1.54034e-08
1.50726e-05
9.84119e-09
1.50666e-05
6.05818e-09
1.5063e-05
3.56194e-09
1.50611e-05
1.96537e-09
1.50601e-05
9.79233e-10
1.50597e-05
3.95638e-10
1.50596e-05
7.06016e-11
1.50597e-05
-9.81655e-11
1.50599e-05
-1.69066e-10
1.50601e-05
-1.86043e-10
1.50602e-05
-1.75763e-10
1.50604e-05
-1.52874e-10
1.50605e-05
-1.26072e-10
1.50606e-05
-1.00144e-10
1.50607e-05
-7.73509e-11
1.50608e-05
-5.84246e-11
1.50608e-05
-4.32552e-11
1.50608e-05
-3.13171e-11
1.50609e-05
-2.18761e-11
1.50609e-05
-1.41412e-11
1.50609e-05
-7.68449e-12
-3.09305e-12
-1.93315e-06
3.63033e-06
-1.27878e-06
2.05082e-07
2.31962e-06
-4.54542e-06
7.99086e-06
-8.05711e-06
1.45981e-05
-9.75066e-06
2.11446e-05
-9.79943e-06
2.69381e-05
-8.68229e-06
3.16066e-05
-6.94487e-06
3.50537e-05
-5.05504e-06
3.73791e-05
-3.33669e-06
3.87919e-05
-1.96038e-06
3.95347e-05
-9.70613e-07
3.98326e-05
-3.29925e-07
3.9866e-05
3.75977e-08
3.97633e-05
2.15404e-07
3.96073e-05
2.74381e-07
3.94456e-05
2.6751e-07
3.93017e-05
2.3019e-07
3.91844e-05
1.83568e-07
3.90941e-05
1.3879e-07
3.90276e-05
1.00716e-07
3.89803e-05
7.06352e-08
3.89477e-05
4.8054e-08
3.89258e-05
3.17526e-08
3.89115e-05
2.03597e-08
3.89024e-05
1.26238e-08
3.88968e-05
7.51439e-09
3.88936e-05
4.23441e-09
3.88918e-05
2.19434e-09
3.88909e-05
9.72768e-10
3.88905e-05
2.76455e-10
3.88904e-05
-9.10243e-11
3.88905e-05
-2.59842e-10
3.88906e-05
-3.16788e-10
3.88908e-05
-3.12189e-10
3.8891e-05
-2.77911e-10
3.88911e-05
-2.32695e-10
3.88912e-05
-1.86858e-10
3.88913e-05
-1.45442e-10
3.88914e-05
-1.10328e-10
3.88914e-05
-8.15457e-11
3.88914e-05
-5.80957e-11
3.88915e-05
-3.86265e-11
3.88915e-05
-2.21743e-11
-9.84528e-12
6.90942e-08
3.56124e-06
4.19047e-06
-3.9163e-06
1.12256e-05
-1.15806e-05
1.9498e-05
-1.63294e-05
2.7831e-05
-1.80837e-05
3.54836e-05
-1.7452e-05
4.20127e-05
-1.52114e-05
4.7217e-05
-1.21492e-05
5.10902e-05
-8.92823e-06
5.37675e-05
-6.01406e-06
5.54668e-05
-3.65963e-06
5.64326e-05
-1.93647e-06
5.68944e-05
-7.91684e-07
5.70412e-05
-1.09208e-07
5.70115e-05
2.45063e-07
5.68994e-05
3.86487e-07
5.6762e-05
4.04972e-07
5.66299e-05
3.62296e-07
5.65169e-05
2.96557e-07
5.64269e-05
2.28772e-07
5.63587e-05
1.68891e-07
5.6309e-05
1.20361e-07
5.62738e-05
8.32088e-08
5.62497e-05
5.59373e-08
5.62334e-05
3.65796e-08
5.62228e-05
2.32303e-08
5.62161e-05
1.42659e-08
5.62119e-05
8.40195e-09
5.62094e-05
4.67108e-09
5.6208e-05
2.37091e-09
5.62073e-05
1.00668e-09
5.6207e-05
2.39632e-10
5.62069e-05
-1.54952e-10
5.62069e-05
-3.35527e-10
5.6207e-05
-3.88276e-10
5.62071e-05
-3.73833e-10
5.62072e-05
-3.28198e-10
5.62072e-05
-2.72166e-10
5.62073e-05
-2.16862e-10
5.62074e-05
-1.67494e-10
5.62074e-05
-1.25667e-10
5.62075e-05
-9.09727e-11
5.62075e-05
-6.2033e-11
5.62075e-05
-3.75823e-11
-1.89357e-11
6.06984e-06
-2.50861e-06
1.59329e-05
-1.37794e-05
2.65891e-05
-2.22367e-05
3.62436e-05
-2.59839e-05
4.44242e-05
-2.62643e-05
5.10987e-05
-2.41266e-05
5.63656e-05
-2.04783e-05
6.03675e-05
-1.6151e-05
6.32721e-05
-1.18329e-05
6.52651e-05
-8.00703e-06
6.65394e-05
-4.93398e-06
6.72812e-05
-2.67828e-06
6.76553e-05
-1.16572e-06
6.77954e-05
-2.49367e-07
6.78004e-05
2.40129e-07
6.77379e-05
4.48941e-07
6.76508e-05
4.92044e-07
6.75628e-05
4.50291e-07
6.74853e-05
3.74089e-07
6.74222e-05
2.91853e-07
6.73736e-05
2.17524e-07
6.73376e-05
1.56384e-07
6.73117e-05
1.09052e-07
6.72937e-05
7.39794e-08
6.72814e-05
4.88696e-08
6.72732e-05
3.14068e-08
6.72679e-05
1.95764e-08
6.72645e-05
1.17621e-08
6.72625e-05
6.73349e-09
6.72613e-05
3.58951e-09
6.72606e-05
1.69022e-09
6.72602e-05
5.93259e-10
6.72601e-05
3.22005e-12
6.726e-05
-2.88511e-10
6.726e-05
-4.0109e-10
6.72601e-05
-4.13723e-10
6.72601e-05
-3.76939e-10
6.72602e-05
-3.20011e-10
6.72602e-05
-2.59178e-10
6.72602e-05
-2.02619e-10
6.72603e-05
-1.5362e-10
6.72603e-05
-1.12595e-10
6.72603e-05
-7.85899e-11
6.72603e-05
-5.02789e-11
-2.85113e-11
2.25877e-05
-2.50963e-05
3.97132e-05
-3.09049e-05
5.11876e-05
-3.3711e-05
5.90203e-05
-3.38167e-05
6.42241e-05
-3.14681e-05
6.7579e-05
-2.74814e-05
6.97005e-05
-2.25998e-05
7.10242e-05
-1.74747e-05
7.18386e-05
-1.26473e-05
7.23276e-05
-8.49601e-06
7.26068e-05
-5.21322e-06
7.27506e-05
-2.82206e-06
7.28087e-05
-1.22377e-06
7.28155e-05
-2.56215e-07
7.2794e-05
2.61584e-07
7.27602e-05
4.82741e-07
7.27238e-05
5.28445e-07
7.26901e-05
4.84001e-07
7.26615e-05
4.02712e-07
7.26386e-05
3.14774e-07
7.2621e-05
2.35098e-07
7.2608e-05
1.69403e-07
7.25986e-05
1.18422e-07
7.25921e-05
8.05551e-08
7.25875e-05
5.33788e-08
7.25845e-05
3.44306e-08
7.25825e-05
2.15587e-08
7.25813e-05
1.30304e-08
7.25805e-05
7.52275e-09
7.258e-05
4.06443e-09
7.25797e-05
1.96371e-09
7.25796e-05
7.41161e-10
7.25795e-05
7.41969e-11
7.25795e-05
-2.60408e-10
7.25795e-05
-3.98075e-10
7.25795e-05
-4.22801e-10
7.25795e-05
-3.90895e-10
7.25795e-05
-3.34833e-10
7.25795e-05
-2.72833e-10
7.25795e-05
-2.14243e-10
7.25796e-05
-1.63152e-10
7.25796e-05
-1.20563e-10
7.25796e-05
-8.58267e-11
7.25796e-05
-5.76702e-11
-3.61942e-11
8.0199e-05
-2.75225e-05
8.36354e-05
-3.43412e-05
8.51906e-05
-3.52663e-05
8.49968e-05
-3.36228e-05
8.3622e-05
-3.00934e-05
8.15809e-05
-2.54403e-05
7.93516e-05
-2.03705e-05
7.72936e-05
-1.54168e-05
7.56062e-05
-1.09599e-05
7.43496e-05
-7.23932e-06
7.34916e-05
-4.35522e-06
7.29546e-05
-2.28509e-06
7.265e-05
-9.19237e-07
7.24996e-05
-1.05784e-07
7.24411e-05
3.2006e-07
7.24337e-05
4.90233e-07
7.24499e-05
5.12229e-07
7.24744e-05
4.59514e-07
7.24991e-05
3.77953e-07
7.25206e-05
2.93271e-07
7.25378e-05
2.17918e-07
7.25508e-05
1.564e-07
7.25603e-05
1.08962e-07
7.25669e-05
7.38832e-08
7.25715e-05
4.87959e-08
7.25746e-05
3.13575e-08
7.25766e-05
1.95459e-08
7.25779e-05
1.1744e-08
7.25787e-05
6.723e-09
7.25792e-05
3.58353e-09
7.25794e-05
1.68692e-09
7.25796e-05
5.91572e-10
7.25797e-05
2.50029e-12
7.25797e-05
-2.88815e-10
7.25797e-05
-4.01255e-10
7.25797e-05
-4.13921e-10
7.25797e-05
-3.77184e-10
7.25797e-05
-3.2023e-10
7.25796e-05
-2.59325e-10
7.25796e-05
-2.02751e-10
7.25796e-05
-1.54043e-10
7.25796e-05
-1.14114e-10
7.25796e-05
-8.24043e-11
7.25796e-05
-5.76355e-11
-3.92743e-11
0.000122645
-2.21115e-05
0.000115814
-2.75107e-05
0.000108494
-2.79457e-05
0.000100802
-2.59313e-05
9.32978e-05
-2.2589e-05
8.64616e-05
-1.8604e-05
8.06191e-05
-1.4528e-05
7.59401e-05
-1.07377e-05
7.24353e-05
-7.45509e-06
6.99874e-05
-4.79143e-06
6.84038e-05
-2.77166e-06
6.74691e-05
-1.35037e-06
6.69833e-05
-4.33409e-07
6.67815e-05
9.59505e-08
6.67456e-05
3.55947e-07
6.67931e-05
4.42811e-07
6.68734e-05
4.31871e-07
6.69587e-05
3.74242e-07
6.70353e-05
3.01363e-07
6.70981e-05
2.30408e-07
6.71468e-05
1.6925e-07
6.71829e-05
1.20282e-07
6.72089e-05
8.30309e-08
6.7227e-05
5.57772e-08
6.72393e-05
3.64643e-08
6.72475e-05
2.31557e-08
6.72528e-05
1.42206e-08
6.72562e-05
8.3755e-09
6.72583e-05
4.65593e-09
6.72595e-05
2.36237e-09
6.72602e-05
1.00202e-09
6.72605e-05
2.37277e-10
6.72607e-05
-1.55973e-10
6.72607e-05
-3.36005e-10
6.72607e-05
-3.88604e-10
6.72607e-05
-3.7421e-10
6.72606e-05
-3.28616e-10
6.72606e-05
-2.72487e-10
6.72605e-05
-2.1697e-10
6.72605e-05
-1.67483e-10
6.72605e-05
-1.26078e-10
6.72605e-05
-9.30372e-11
6.72604e-05
-6.76885e-11
6.72604e-05
-4.87703e-11
-3.55568e-11
0.00012879
-1.47975e-05
0.000118313
-1.70333e-05
0.000106999
-1.66312e-05
9.58794e-05
-1.48122e-05
8.57192e-05
-1.24287e-05
7.70201e-05
-9.90488e-06
6.99965e-05
-7.50442e-06
6.46437e-05
-5.38485e-06
6.08068e-05
-3.6182e-06
5.82405e-05
-2.22516e-06
5.66627e-05
-1.19384e-06
5.57986e-05
-4.86261e-07
5.54103e-05
-4.51737e-08
5.53117e-05
1.94589e-07
5.53706e-05
2.97016e-07
5.54992e-05
3.14246e-07
5.56454e-05
2.85683e-07
5.57819e-05
2.37774e-07
5.58969e-05
1.86324e-07
5.59878e-05
1.39528e-07
5.60563e-05
1.00717e-07
5.61061e-05
7.04347e-08
5.61413e-05
4.78486e-08
5.61655e-05
3.15968e-08
5.61817e-05
2.02559e-08
5.61923e-05
1.25597e-08
5.61991e-05
7.47661e-09
5.62032e-05
4.21278e-09
5.62057e-05
2.18215e-09
5.62071e-05
9.66012e-10
5.62078e-05
2.72831e-10
5.62082e-05
-9.27659e-11
5.62083e-05
-2.60703e-10
5.62082e-05
-3.173e-10
5.62082e-05
-3.12684e-10
5.62081e-05
-2.78469e-10
5.6208e-05
-2.33201e-10
5.62079e-05
-1.87117e-10
5.62078e-05
-1.45302e-10
5.62078e-05
-1.09904e-10
5.62077e-05
-8.14232e-11
5.62077e-05
-5.94662e-11
5.62077e-05
-4.32241e-11
5.62076e-05
-3.18088e-11
-2.50562e-11
0.00010107
-6.08692e-06
9.02375e-05
-6.20124e-06
7.92027e-05
-5.59645e-06
6.90471e-05
-4.6566e-06
6.03076e-05
-3.68918e-06
5.32056e-05
-2.80291e-06
4.77361e-05
-2.03491e-06
4.37489e-05
-1.39763e-06
4.10191e-05
-8.88411e-07
3.92927e-05
-4.98819e-07
3.83172e-05
-2.18325e-07
3.78639e-05
-3.29648e-08
3.77435e-05
7.52207e-08
3.78119e-05
1.26227e-07
3.79696e-05
1.39339e-07
3.81535e-05
1.30281e-07
3.83286e-05
1.10647e-07
3.84783e-05
8.80011e-08
3.85981e-05
6.66115e-08
3.86891e-05
4.84402e-08
3.87558e-05
3.403e-08
3.88031e-05
2.31619e-08
3.88357e-05
1.52843e-08
3.88575e-05
9.76352e-09
3.88717e-05
6.01075e-09
3.88808e-05
3.53425e-09
3.88863e-05
1.94971e-09
3.88895e-05
9.70579e-10
3.88913e-05
3.90957e-10
3.88922e-05
6.81727e-11
3.88926e-05
-9.93762e-11
3.88927e-05
-1.69539e-10
3.88926e-05
-1.86312e-10
3.88925e-05
-1.76074e-10
3.88923e-05
-1.53329e-10
3.88922e-05
-1.26578e-10
3.8892e-05
-1.00478e-10
3.88919e-05
-7.73423e-11
3.88918e-05
-5.80612e-11
3.88918e-05
-4.26857e-11
3.88917e-05
-3.08387e-11
3.88917e-05
-2.20032e-11
3.88916e-05
-1.57523e-11
3.88916e-05
-1.19395e-11
-1.09461e-11
4.21997e-05
3.59985e-05
3.0402e-05
2.57454e-05
2.20562e-05
1.92533e-05
1.72184e-05
1.58208e-05
1.49324e-05
1.44336e-05
1.42152e-05
1.41823e-05
1.42575e-05
1.43837e-05
1.45231e-05
1.46533e-05
1.4764e-05
1.4852e-05
1.49186e-05
1.4967e-05
1.50011e-05
1.50242e-05
1.50395e-05
1.50493e-05
1.50553e-05
1.50588e-05
1.50608e-05
1.50618e-05
1.50621e-05
1.50622e-05
1.50621e-05
1.50619e-05
1.50618e-05
1.50616e-05
1.50614e-05
1.50613e-05
1.50612e-05
1.50611e-05
1.50611e-05
1.5061e-05
1.5061e-05
1.5061e-05
1.5061e-05
1.50609e-05
)
;

boundaryField
{
    fixedWalls
    {
        type            calculated;
        value           uniform 0;
    }
    inflowWall
    {
        type            calculated;
        value           nonuniform List<scalar> 5(-0.0001 -0.0001 -0.0001 -0.0001 -0.0001);
    }
    outflowWall
    {
        type            calculated;
        value           nonuniform List<scalar> 10(1.50609e-05 3.88915e-05 5.62075e-05 6.72603e-05 7.25796e-05 7.25796e-05 6.72604e-05 5.62076e-05 3.88916e-05 1.50609e-05);
    }
    frontAndBack
    {
        type            empty;
        value           nonuniform List<scalar> 0();
    }
}


// ************************************************************************* //
