/*--------------------------------*- C++ -*----------------------------------*\
| =========                 |                                                 |
| \\      /  F ield         | OpenFOAM: The Open Source CFD Toolbox           |
|  \\    /   O peration     | Version:  2306                                  |
|   \\  /    A nd           | Website:  www.openfoam.com                      |
|    \\/     M anipulation  |                                                 |
\*---------------------------------------------------------------------------*/
FoamFile
{
    version     2.0;
    format      ascii;
    arch        "LSB;label=32;scalar=64";
    class       volVectorField;
    location    "0.09";
    object      U;
}
// * * * * * * * * * * * * * * * * * * * * * * * * * * * * * * * * * * * * * //

dimensions      [0 1 -1 0 0 0 0];

internalField   nonuniform List<vector> 
475
(
(0.814409 0.100505 0)
(0.775573 0.0918341 0)
(0.700873 0.0433787 0)
(0.670034 -0.00221355 0)
(0.67084 -0.0682138 0)
(1.01652 0.129964 0)
(1.1327 0.124918 0)
(1.20484 0.0583935 0)
(1.24682 -0.0115876 0)
(1.26661 -0.106194 0)
(1.03409 -0.00840902 0)
(1.1811 -0.0234411 0)
(1.29864 -0.0423863 0)
(1.36189 -0.0705995 0)
(1.3759 -0.118754 0)
(1.01507 -0.141501 0)
(1.11947 -0.157502 0)
(1.16672 -0.119135 0)
(1.165 -0.0957669 0)
(1.13103 -0.0936322 0)
(0.812714 -0.103774 0)
(0.760393 -0.101714 0)
(0.656015 -0.0638368 0)
(0.571382 -0.0404392 0)
(0.511344 -0.0301471 0)
(-0.00984491 0.00875193 0)
(-0.0244564 0.00623323 0)
(-0.0240141 -0.00114694 0)
(-0.00626436 -0.00744382 0)
(0.0227817 -0.0109003 0)
(0.0558204 -0.0115676 0)
(0.0871321 -0.0101906 0)
(0.113219 -0.00778639 0)
(0.13263 -0.00520643 0)
(0.145543 -0.00298277 0)
(0.153084 -0.00133915 0)
(0.156709 -0.000279932 0)
(0.1578 0.000304966 0)
(0.157454 0.000558105 0)
(0.156438 0.000609619 0)
(0.155226 0.000555257 0)
(0.154076 0.000457428 0)
(0.153105 0.000352409 0)
(0.15234 0.000258199 0)
(0.15177 0.000181526 0)
(0.151361 0.000123004 0)
(0.151079 8.04193e-05 0)
(0.15089 5.062e-05 0)
(0.150767 3.04798e-05 0)
(0.15069 1.73181e-05 0)
(0.150644 9.01753e-06 0)
(0.150618 3.99434e-06 0)
(0.150604 1.1116e-06 0)
(0.150598 -4.19777e-07 0)
(0.150596 -1.12915e-06 0)
(0.150596 -1.35173e-06 0)
(0.150598 -1.32574e-06 0)
(0.1506 -1.17923e-06 0)
(0.150602 -9.89609e-07 0)
(0.150603 -7.962e-07 0)
(0.150605 -6.20217e-07 0)
(0.150606 -4.71111e-07 0)
(0.150607 -3.50867e-07 0)
(0.150607 -2.57146e-07 0)
(0.150608 -1.85631e-07 0)
(0.150608 -1.31455e-07 0)
(0.150608 -8.97417e-08 0)
(0.150609 -5.59865e-08 0)
(0.150609 -2.81388e-08 0)
(0.150609 -9.22729e-09 0)
(-0.0132327 0.028016 0)
(-0.0235568 0.0110573 0)
(-0.000368684 -0.0196722 0)
(0.0487806 -0.0440529 0)
(0.112512 -0.0567958 0)
(0.179873 -0.0584162 0)
(0.242543 -0.0519571 0)
(0.295289 -0.0412117 0)
(0.335855 -0.0294374 0)
(0.364392 -0.0188325 0)
(0.382599 -0.0104953 0)
(0.392868 -0.00465595 0)
(0.397628 -0.00101243 0)
(0.398946 0.00096358 0)
(0.398367 0.00181839 0)
(0.39693 0.00199974 0)
(0.395262 0.00182973 0)
(0.393697 0.00151569 0)
(0.392379 0.00117625 0)
(0.391343 0.000869979 0)
(0.390566 0.000619083 0)
(0.390005 0.000426051 0)
(0.389614 0.000284203 0)
(0.389348 0.000183722 0)
(0.389172 0.000114764 0)
(0.38906 6.88181e-05 0)
(0.38899 3.90993e-05 0)
(0.388948 2.0487e-05 0)
(0.388924 9.26609e-06 0)
(0.388912 2.82835e-06 0)
(0.388906 -5.99074e-07 0)
(0.388904 -2.21045e-06 0)
(0.388904 -2.77036e-06 0)
(0.388906 -2.76675e-06 0)
(0.388907 -2.48375e-06 0)
(0.388909 -2.0917e-06 0)
(0.38891 -1.68686e-06 0)
(0.388912 -1.31795e-06 0)
(0.388912 -1.0045e-06 0)
(0.388913 -7.49276e-07 0)
(0.388914 -5.4594e-07 0)
(0.388914 -3.83459e-07 0)
(0.388915 -2.49688e-07 0)
(0.388915 -1.37288e-07 0)
(0.388915 -5.51673e-08 0)
(-0.00604827 0.0417728 0)
(0.00903835 -0.00737329 0)
(0.0729421 -0.0717654 0)
(0.153426 -0.116273 0)
(0.238017 -0.136278 0)
(0.318802 -0.135195 0)
(0.390206 -0.119356 0)
(0.449046 -0.0956925 0)
(0.49431 -0.0701409 0)
(0.526708 -0.0468529 0)
(0.548101 -0.0280651 0)
(0.560904 -0.0144084 0)
(0.567573 -0.00543898 0)
(0.570244 -0.000180848 0)
(0.570565 0.00245621 0)
(0.569686 0.00342704 0)
(0.568338 0.00345455 0)
(0.566939 0.00302818 0)
(0.565692 0.00244554 0)
(0.564673 0.00186729 0)
(0.563886 0.00136663 0)
(0.563304 0.000966201 0)
(0.562887 0.000662715 0)
(0.562597 0.000441812 0)
(0.562401 0.00028622 0)
(0.562271 0.000179737 0)
(0.562187 0.000108803 0)
(0.562135 6.28174e-05 0)
(0.562104 3.38687e-05 0)
(0.562085 1.62589e-05 0)
(0.562075 5.99944e-06 0)
(0.562071 3.85079e-07 0)
(0.562069 -2.38994e-06 0)
(0.562069 -3.49724e-06 0)
(0.562069 -3.67978e-06 0)
(0.56207 -3.39121e-06 0)
(0.562071 -2.90206e-06 0)
(0.562072 -2.36595e-06 0)
(0.562073 -1.86227e-06 0)
(0.562073 -1.42497e-06 0)
(0.562074 -1.06076e-06 0)
(0.562074 -7.61179e-07 0)
(0.562075 -5.11338e-07 0)
(0.562075 -2.99493e-07 0)
(0.562075 -1.39029e-07 0)
(0.0363512 0.0428837 0)
(0.100522 -0.0692655 0)
(0.213127 -0.162615 0)
(0.318473 -0.21189 0)
(0.407365 -0.225595 0)
(0.480876 -0.213342 0)
(0.540084 -0.184202 0)
(0.586077 -0.146713 0)
(0.62029 -0.108033 0)
(0.64444 -0.0732265 0)
(0.660411 -0.045071 0)
(0.670125 -0.024355 0)
(0.675376 -0.0104701 0)
(0.677683 -0.00207265 0)
(0.678217 0.00236961 0)
(0.677803 0.00423407 0)
(0.676979 0.00458978 0)
(0.676062 0.00417648 0)
(0.675216 0.0034562 0)
(0.674508 0.00268807 0)
(0.673951 0.00199803 0)
(0.673531 0.00143276 0)
(0.673227 0.000996554 0)
(0.673012 0.00067422 0)
(0.672864 0.000444038 0)
(0.672765 0.00028436 0)
(0.6727 0.000176471 0)
(0.672658 0.000105414 0)
(0.672633 5.98398e-05 0)
(0.672617 3.1461e-05 0)
(0.672608 1.44048e-05 0)
(0.672603 4.62118e-06 0)
(0.672601 -6.18354e-07 0)
(0.6726 -3.09552e-06 0)
(0.6726 -3.9815e-06 0)
(0.6726 -4.00149e-06 0)
(0.672601 -3.59775e-06 0)
(0.672601 -3.02968e-06 0)
(0.672602 -2.44023e-06 0)
(0.672602 -1.89994e-06 0)
(0.672603 -1.43509e-06 0)
(0.672603 -1.04634e-06 0)
(0.672603 -7.21932e-07 0)
(0.672603 -4.48628e-07 0)
(0.672603 -2.38135e-07 0)
(0.197846 -0.122547 0)
(0.310801 -0.230844 0)
(0.456365 -0.291624 0)
(0.557946 -0.311994 0)
(0.621647 -0.301445 0)
(0.662156 -0.269832 0)
(0.688151 -0.22571 0)
(0.704644 -0.176667 0)
(0.714949 -0.129044 0)
(0.721262 -0.087358 0)
(0.724983 -0.0540275 0)
(0.72701 -0.0295683 0)
(0.727945 -0.0131207 0)
(0.728211 -0.00308951 0)
(0.728095 0.00230131 0)
(0.72779 0.00464398 0)
(0.727422 0.00518377 0)
(0.727062 0.00478731 0)
(0.726747 0.00400107 0)
(0.726489 0.00313595 0)
(0.726287 0.00234653 0)
(0.726136 0.00169314 0)
(0.726026 0.00118494 0)
(0.725948 0.00080686 0)
(0.725894 0.000535191 0)
(0.725857 0.000345582 0)
(0.725833 0.000216658 0)
(0.725818 0.000131158 0)
(0.725808 7.58843e-05 0)
(0.725802 4.11337e-05 0)
(0.725798 1.99895e-05 0)
(0.725796 7.6516e-06 0)
(0.725795 8.66528e-07 0)
(0.725795 -2.52133e-06 0)
(0.725795 -3.90255e-06 0)
(0.725795 -4.16854e-06 0)
(0.725795 -3.866e-06 0)
(0.725795 -3.31819e-06 0)
(0.725795 -2.70762e-06 0)
(0.725795 -2.12843e-06 0)
(0.725796 -1.62138e-06 0)
(0.725796 -1.19568e-06 0)
(0.725796 -8.44278e-07 0)
(0.725796 -5.54423e-07 0)
(0.725796 -3.31099e-07 0)
(0.835252 -0.305219 0)
(0.834164 -0.360568 0)
(0.845762 -0.371602 0)
(0.853396 -0.358387 0)
(0.845376 -0.325182 0)
(0.826662 -0.278795 0)
(0.804056 -0.22617 0)
(0.78205 -0.173183 0)
(0.763199 -0.124468 0)
(0.748602 -0.08317 0)
(0.738263 -0.0507887 0)
(0.731542 -0.0273233 0)
(0.727557 -0.0116882 0)
(0.725455 -0.00223461 0)
(0.724533 0.00277782 0)
(0.724284 0.00489473 0)
(0.724377 0.00530848 0)
(0.724608 0.00484552 0)
(0.724869 0.00402621 0)
(0.725106 0.00314566 0)
(0.725301 0.00234958 0)
(0.725451 0.00169362 0)
(0.725562 0.0011846 0)
(0.725641 0.000806386 0)
(0.725696 0.0005348 0)
(0.725733 0.000345311 0)
(0.725758 0.000216486 0)
(0.725774 0.000131054 0)
(0.725784 7.58235e-05 0)
(0.72579 4.10987e-05 0)
(0.725793 1.99699e-05 0)
(0.725795 7.64157e-06 0)
(0.725796 8.62012e-07 0)
(0.725797 -2.52294e-06 0)
(0.725797 -3.90322e-06 0)
(0.725797 -4.16935e-06 0)
(0.725797 -3.86715e-06 0)
(0.725797 -3.31936e-06 0)
(0.725797 -2.70857e-06 0)
(0.725796 -2.12946e-06 0)
(0.725796 -1.62418e-06 0)
(0.725796 -1.20463e-06 0)
(0.725796 -8.66008e-07 0)
(0.725796 -5.95988e-07 0)
(0.725796 -3.92154e-07 0)
(1.27302 -0.254004 0)
(1.20557 -0.317609 0)
(1.12397 -0.328149 0)
(1.04586 -0.310053 0)
(0.96921 -0.274311 0)
(0.896494 -0.229102 0)
(0.832345 -0.181227 0)
(0.779587 -0.135568 0)
(0.738951 -0.0952872 0)
(0.709689 -0.062163 0)
(0.690101 -0.036782 0)
(0.678046 -0.0187426 0)
(0.67139 -0.00695858 0)
(0.668291 -1.75634e-05 0)
(0.66734 0.00349887 0)
(0.66755 0.00481974 0)
(0.668281 0.00487621 0)
(0.669158 0.00430753 0)
(0.66999 0.00351127 0)
(0.670695 0.0027084 0)
(0.671253 0.00200376 0)
(0.671673 0.00143309 0)
(0.671978 0.000995336 0)
(0.672194 0.000672891 0)
(0.672342 0.000443012 0)
(0.672442 0.000283672 0)
(0.672507 0.000176043 0)
(0.672549 0.000105158 0)
(0.672575 5.9691e-05 0)
(0.67259 3.13757e-05 0)
(0.672599 1.43576e-05 0)
(0.672604 4.59706e-06 0)
(0.672606 -6.29281e-07 0)
(0.672607 -3.09975e-06 0)
(0.672607 -3.98373e-06 0)
(0.672607 -4.0041e-06 0)
(0.672607 -3.60104e-06 0)
(0.672606 -3.03267e-06 0)
(0.672606 -2.44205e-06 0)
(0.672605 -1.90141e-06 0)
(0.672605 -1.44084e-06 0)
(0.672605 -1.06758e-06 0)
(0.672604 -7.76081e-07 0)
(0.672604 -5.53623e-07 0)
(0.672604 -3.93457e-07 0)
(1.33892 -0.188683 0)
(1.24564 -0.224866 0)
(1.12908 -0.225476 0)
(1.0128 -0.205741 0)
(0.904831 -0.175936 0)
(0.809705 -0.142292 0)
(0.730792 -0.109149 0)
(0.66915 -0.0792273 0)
(0.623782 -0.0539285 0)
(0.592481 -0.033793 0)
(0.572474 -0.0187734 0)
(0.560896 -0.00837615 0)
(0.555142 -0.00180392 0)
(0.553082 0.00187128 0)
(0.553138 0.00354817 0)
(0.554236 0.00397461 0)
(0.555703 0.00371211 0)
(0.557162 0.00314036 0)
(0.558438 0.00248935 0)
(0.559471 0.00188133 0)
(0.560263 0.00136901 0)
(0.560847 0.000964809 0)
(0.561265 0.000660649 0)
(0.561555 0.000440079 0)
(0.561751 0.000285009 0)
(0.561881 0.000178966 0)
(0.561964 0.00010834 0)
(0.562016 6.25479e-05 0)
(0.562048 3.37143e-05 0)
(0.562066 1.61716e-05 0)
(0.562076 5.95171e-06 0)
(0.562081 3.60898e-07 0)
(0.562083 -2.40086e-06 0)
(0.562083 -3.50224e-06 0)
(0.562082 -3.68361e-06 0)
(0.562081 -3.39582e-06 0)
(0.56208 -2.90696e-06 0)
(0.562079 -2.3694e-06 0)
(0.562078 -1.86269e-06 0)
(0.562078 -1.42341e-06 0)
(0.562077 -1.06336e-06 0)
(0.562077 -7.81312e-07 0)
(0.562077 -5.69393e-07 0)
(0.562076 -4.16337e-07 0)
(0.562076 -3.1752e-07 0)
(1.06258 -0.10707 0)
(0.961456 -0.112095 0)
(0.847545 -0.103328 0)
(0.73876 -0.087675 0)
(0.643161 -0.070513 0)
(0.56365 -0.0541607 0)
(0.50094 -0.0396755 0)
(0.454107 -0.0275106 0)
(0.421124 -0.0177324 0)
(0.399474 -0.0102312 0)
(0.386551 -0.00481415 0)
(0.379904 -0.00120782 0)
(0.377424 0.000934819 0)
(0.377444 0.00199432 0)
(0.37876 0.00233098 0)
(0.38058 0.00223774 0)
(0.382435 0.00193126 0)
(0.384085 0.00155393 0)
(0.385438 0.00118746 0)
(0.386488 0.000870966 0)
(0.387269 0.000617023 0)
(0.387829 0.000423669 0)
(0.38822 0.000282322 0)
(0.388485 0.000182441 0)
(0.38866 0.000113961 0)
(0.388772 6.83409e-05 0)
(0.388842 3.88259e-05 0)
(0.388883 2.03339e-05 0)
(0.388907 9.18164e-06 0)
(0.388919 2.7829e-06 0)
(0.388925 -6.22156e-07 0)
(0.388927 -2.22145e-06 0)
(0.388927 -2.77558e-06 0)
(0.388926 -2.77085e-06 0)
(0.388924 -2.48896e-06 0)
(0.388922 -2.09767e-06 0)
(0.388921 -1.69145e-06 0)
(0.38892 -1.31899e-06 0)
(0.388919 -1.0011e-06 0)
(0.388918 -7.4294e-07 0)
(0.388917 -5.41442e-07 0)
(0.388917 -3.89888e-07 0)
(0.388917 -2.81165e-07 0)
(0.388916 -2.10355e-07 0)
(0.388916 -1.7918e-07 0)
(0.453676 -0.0274247 0)
(0.391407 -0.0247129 0)
(0.331076 -0.0199697 0)
(0.279085 -0.0149239 0)
(0.237195 -0.0107109 0)
(0.20482 -0.00743332 0)
(0.180823 -0.00493083 0)
(0.163909 -0.00304423 0)
(0.152745 -0.00163848 0)
(0.146065 -0.000618776 0)
(0.142709 7.54252e-05 0)
(0.141643 0.000494742 0)
(0.142002 0.000695494 0)
(0.143113 0.000739196 0)
(0.144507 0.000685701 0)
(0.145893 0.000582721 0)
(0.147115 0.000464516 0)
(0.148114 0.000352136 0)
(0.148885 0.000255989 0)
(0.149456 0.000179339 0)
(0.149863 0.000121365 0)
(0.150143 7.93342e-05 0)
(0.150331 4.99519e-05 0)
(0.150453 3.00885e-05 0)
(0.150529 1.70976e-05 0)
(0.150575 8.897e-06 0)
(0.150601 3.92989e-06 0)
(0.150614 1.07752e-06 0)
(0.150621 -4.37663e-07 0)
(0.150622 -1.13812e-06 0)
(0.150622 -1.35548e-06 0)
(0.15062 -1.32683e-06 0)
(0.150619 -1.17938e-06 0)
(0.150617 -9.90243e-07 0)
(0.150615 -7.98014e-07 0)
(0.150614 -6.22755e-07 0)
(0.150612 -4.73043e-07 0)
(0.150612 -3.51018e-07 0)
(0.150611 -2.55216e-07 0)
(0.15061 -1.82235e-07 0)
(0.15061 -1.28044e-07 0)
(0.15061 -8.89773e-08 0)
(0.15061 -6.26841e-08 0)
(0.150609 -4.907e-08 0)
(0.150609 -5.00449e-08 0)
)
;

boundaryField
{
    fixedWalls
    {
        type            noSlip;
    }
    inflowWall
    {
        type            fixedValue;
        value           uniform (1 0 0);
    }
    outflowWall
    {
        type            zeroGradient;
    }
    frontAndBack
    {
        type            empty;
    }
}


// ************************************************************************* //
