/*--------------------------------*- C++ -*----------------------------------*\
| =========                 |                                                 |
| \\      /  F ield         | OpenFOAM: The Open Source CFD Toolbox           |
|  \\    /   O peration     | Version:  2306                                  |
|   \\  /    A nd           | Website:  www.openfoam.com                      |
|    \\/     M anipulation  |                                                 |
\*---------------------------------------------------------------------------*/
FoamFile
{
    version     2.0;
    format      ascii;
    arch        "LSB;label=32;scalar=64";
    class       volVectorField;
    location    "0.09";
    object      U;
}
// * * * * * * * * * * * * * * * * * * * * * * * * * * * * * * * * * * * * * //

dimensions      [0 1 -1 0 0 0 0];

internalField   nonuniform List<vector> 
47500
(
(0.708058 0.141126 0)
(0.605107 0.126852 0)
(0.442238 0.0756732 0)
(0.323205 0.0428888 0)
(0.252629 0.0249082 0)
(0.207937 0.0151467 0)
(0.177259 0.00977768 0)
(0.155192 0.00671767 0)
(0.138696 0.00487325 0)
(0.125945 0.00368929 0)
(0.115829 0.00288336 0)
(0.107644 0.00230701 0)
(0.100923 0.00187828 0)
(0.0953406 0.00154932 0)
(0.0906613 0.00129068 0)
(0.0867121 0.00108328 0)
(0.0833616 0.000914227 0)
(0.0805084 0.000774536 0)
(0.0780729 0.00065773 0)
(0.0759914 0.000559039 0)
(0.0742129 0.000474876 0)
(0.0726957 0.000402492 0)
(0.0714054 0.000339747 0)
(0.0703137 0.000284947 0)
(0.0693969 0.000236733 0)
(0.0686355 0.000193998 0)
(0.0680128 0.000155825 0)
(0.0675152 0.000121445 0)
(0.0671313 9.02005e-05 0)
(0.0668516 6.15181e-05 0)
(0.0666687 3.48907e-05 0)
(0.0665767 9.85218e-06 0)
(0.0665714 -1.40363e-05 0)
(0.0666502 -3.72055e-05 0)
(0.0668122 -6.00953e-05 0)
(0.0670583 -8.31835e-05 0)
(0.0673917 -0.000107019 0)
(0.0678181 -0.000132275 0)
(0.0683471 -0.000159855 0)
(0.0689932 -0.000191099 0)
(0.0697787 -0.000228281 0)
(0.0707382 -0.000275872 0)
(0.0719286 -0.000343939 0)
(0.0734505 -0.000457556 0)
(0.0754941 -0.000682755 0)
(0.0784375 -0.00119714 0)
(0.0831557 -0.00248726 0)
(0.0920961 -0.00595902 0)
(0.110973 -0.015913 0)
(0.146168 -0.0452602 0)
(0.990012 0.273751 0)
(0.981277 0.298007 0)
(0.863904 0.216089 0)
(0.734144 0.146998 0)
(0.628323 0.100192 0)
(0.545482 0.0697699 0)
(0.480666 0.0501587 0)
(0.429795 0.037309 0)
(0.389465 0.0286143 0)
(0.357052 0.0225112 0)
(0.330648 0.0180753 0)
(0.308882 0.0147501 0)
(0.290756 0.0121912 0)
(0.275534 0.0101778 0)
(0.262663 0.00856387 0)
(0.25172 0.00724949 0)
(0.242378 0.00616444 0)
(0.234379 0.00525808 0)
(0.227517 0.00449308 0)
(0.221626 0.00384139 0)
(0.216572 0.00328156 0)
(0.212243 0.00279691 0)
(0.208548 0.00237426 0)
(0.205409 0.00200308 0)
(0.202763 0.00167479 0)
(0.200556 0.00138235 0)
(0.198742 0.00111984 0)
(0.197284 0.000882237 0)
(0.196151 0.000665177 0)
(0.195317 0.000464789 0)
(0.194762 0.000277548 0)
(0.194469 0.000100131 0)
(0.194428 -7.07254e-05 0)
(0.194634 -0.000238383 0)
(0.195085 -0.000406501 0)
(0.195785 -0.000579316 0)
(0.196748 -0.000762046 0)
(0.197995 -0.000961533 0)
(0.19956 -0.00118732 0)
(0.201493 -0.00145358 0)
(0.203874 -0.00178271 0)
(0.206819 -0.00221257 0)
(0.210514 -0.00281154 0)
(0.215255 -0.00371155 0)
(0.221524 -0.00518162 0)
(0.230112 -0.00778965 0)
(0.242344 -0.0127554 0)
(0.26054 -0.0227656 0)
(0.287645 -0.0437596 0)
(0.322008 -0.0862379 0)
(1.02873 0.230537 0)
(1.06518 0.337272 0)
(1.02857 0.307933 0)
(0.952115 0.249929 0)
(0.866779 0.194719 0)
(0.785968 0.150087 0)
(0.714451 0.11632 0)
(0.653214 0.0913118 0)
(0.601502 0.0727539 0)
(0.557987 0.0588107 0)
(0.521318 0.0481607 0)
(0.49031 0.0398825 0)
(0.463977 0.0333382 0)
(0.44152 0.0280829 0)
(0.422294 0.0238029 0)
(0.405783 0.0202729 0)
(0.391568 0.0173286 0)
(0.379309 0.0148479 0)
(0.368729 0.0127388 0)
(0.359598 0.0109309 0)
(0.351727 0.00936936 0)
(0.344956 0.00801105 0)
(0.339154 0.0068215 0)
(0.334207 0.00577281 0)
(0.330022 0.00484209 0)
(0.326518 0.00401031 0)
(0.323629 0.00326139 0)
(0.321297 0.00258154 0)
(0.319476 0.00195866 0)
(0.318127 0.00138192 0)
(0.317219 0.000841323 0)
(0.316729 0.000327319 0)
(0.31664 -0.000169607 0)
(0.316945 -0.000659421 0)
(0.317644 -0.00115316 0)
(0.318746 -0.00166375 0)
(0.320271 -0.00220732 0)
(0.322255 -0.00280504 0)
(0.324752 -0.00348627 0)
(0.327843 -0.00429371 0)
(0.331645 -0.0052923 0)
(0.336332 -0.00658505 0)
(0.342152 -0.00834176 0)
(0.349472 -0.0108518 0)
(0.358819 -0.0146215 0)
(0.370915 -0.0205441 0)
(0.386682 -0.0301746 0)
(0.407103 -0.0461382 0)
(0.432235 -0.0725455 0)
(0.458205 -0.113639 0)
(1.02485 0.170713 0)
(1.0701 0.314579 0)
(1.08052 0.338859 0)
(1.0526 0.311337 0)
(1.00163 0.267044 0)
(0.941446 0.222033 0)
(0.880418 0.182504 0)
(0.822893 0.149845 0)
(0.770743 0.123523 0)
(0.724452 0.102465 0)
(0.68382 0.0855878 0)
(0.648355 0.0719746 0)
(0.617479 0.0608984 0)
(0.590619 0.0518004 0)
(0.567252 0.0442558 0)
(0.54692 0.0379418 0)
(0.529224 0.0326118 0)
(0.513823 0.0280762 0)
(0.500427 0.0241876 0)
(0.488789 0.0208303 0)
(0.478697 0.0179127 0)
(0.469973 0.0153613 0)
(0.462462 0.0131163 0)
(0.456033 0.011129 0)
(0.450573 0.00935867 0)
(0.445986 0.00777124 0)
(0.44219 0.00633758 0)
(0.439116 0.00503243 0)
(0.436706 0.00383347 0)
(0.434912 0.00272051 0)
(0.433697 0.00167472 0)
(0.433031 0.000677984 0)
(0.432894 -0.000287933 0)
(0.433278 -0.00124225 0)
(0.434181 -0.00220631 0)
(0.435618 -0.00320517 0)
(0.437613 -0.00426982 0)
(0.440211 -0.00544051 0)
(0.443477 -0.00677191 0)
(0.447506 -0.00834116 0)
(0.452428 -0.0102608 0)
(0.458427 -0.0126999 0)
(0.465747 -0.0159176 0)
(0.474711 -0.0203177 0)
(0.48572 -0.0265316 0)
(0.499218 -0.0355338 0)
(0.515569 -0.0487648 0)
(0.534771 -0.0681795 0)
(0.55571 -0.0959678 0)
(0.574952 -0.133029 0)
(1.01676 0.128188 0)
(1.05701 0.275116 0)
(1.08731 0.331702 0)
(1.09071 0.333611 0)
(1.0701 0.308311 0)
(1.03428 0.272646 0)
(0.990751 0.235644 0)
(0.944709 0.201436 0)
(0.899408 0.171477 0)
(0.856661 0.145929 0)
(0.817332 0.124404 0)
(0.781713 0.106341 0)
(0.749778 0.0911733 0)
(0.721331 0.0783935 0)
(0.696102 0.0675744 0)
(0.673797 0.058365 0)
(0.654125 0.0504809 0)
(0.636814 0.0436924 0)
(0.621616 0.0378141 0)
(0.608305 0.032696 0)
(0.596684 0.0282156 0)
(0.586577 0.0242727 0)
(0.577831 0.0207843 0)
(0.57031 0.0176812 0)
(0.563897 0.0149051 0)
(0.558491 0.0124062 0)
(0.554002 0.0101416 0)
(0.550357 0.00807358 0)
(0.547491 0.0061684 0)
(0.545351 0.00439533 0)
(0.543897 0.00272542 0)
(0.543095 0.00113056 0)
(0.542923 -0.000417626 0)
(0.543372 -0.00194917 0)
(0.54444 -0.00349738 0)
(0.546141 -0.00510103 0)
(0.548503 -0.00680752 0)
(0.55157 -0.00867723 0)
(0.55541 -0.01079 0)
(0.560114 -0.0132548 0)
(0.565805 -0.0162239 0)
(0.572639 -0.0199139 0)
(0.58081 -0.0246362 0)
(0.590544 -0.0308387 0)
(0.602065 -0.0391581 0)
(0.61553 -0.0504699 0)
(0.630891 -0.0658954 0)
(0.647652 -0.0866836 0)
(0.664483 -0.1138 0)
(0.678905 -0.146892 0)
(1.01072 0.0991304 0)
(1.04301 0.235166 0)
(1.07861 0.307014 0)
(1.09883 0.330712 0)
(1.09975 0.324334 0)
(1.08499 0.301802 0)
(1.05949 0.272312 0)
(1.02766 0.241292 0)
(0.992904 0.211602 0)
(0.95761 0.18454 0)
(0.923294 0.160521 0)
(0.890854 0.139511 0)
(0.86076 0.121264 0)
(0.833203 0.105462 0)
(0.808208 0.091778 0)
(0.785694 0.0799089 0)
(0.765529 0.0695865 0)
(0.747552 0.0605798 0)
(0.731593 0.0526923 0)
(0.717487 0.0457582 0)
(0.705073 0.0396375 0)
(0.694202 0.0342121 0)
(0.68474 0.0293818 0)
(0.676563 0.0250612 0)
(0.669561 0.021177 0)
(0.663637 0.0176654 0)
(0.658704 0.0144708 0)
(0.654689 0.0115434 0)
(0.651527 0.00883827 0)
(0.649166 0.00631397 0)
(0.647561 0.00393111 0)
(0.646681 0.00165117 0)
(0.646502 -0.000564918 0)
(0.647013 -0.00275844 0)
(0.648211 -0.00497498 0)
(0.65011 -0.00726706 0)
(0.652735 -0.00969782 0)
(0.656125 -0.0123459 0)
(0.66034 -0.0153124 0)
(0.665456 -0.0187304 0)
(0.671571 -0.022778 0)
(0.6788 -0.0276963 0)
(0.687265 -0.0338111 0)
(0.697084 -0.041559 0)
(0.708323 -0.0515092 0)
(0.72093 -0.0643662 0)
(0.734624 -0.080918 0)
(0.748748 -0.101877 0)
(0.762119 -0.127538 0)
(0.773065 -0.157189 0)
(1.00696 0.0787043 0)
(1.03213 0.199732 0)
(1.0665 0.276232 0)
(1.09406 0.313685 0)
(1.10826 0.32263 0)
(1.10915 0.313149 0)
(1.09908 0.293138 0)
(1.08104 0.268104 0)
(1.05783 0.241555 0)
(1.03177 0.215542 0)
(1.00461 0.191149 0)
(0.977563 0.16886 0)
(0.951429 0.148808 0)
(0.926712 0.130929 0)
(0.903694 0.115069 0)
(0.882509 0.101032 0)
(0.863188 0.0886133 0)
(0.845703 0.0776196 0)
(0.829983 0.0678721 0)
(0.815938 0.0592111 0)
(0.803465 0.0514954 0)
(0.792459 0.0446012 0)
(0.782817 0.0384202 0)
(0.77444 0.0328574 0)
(0.767235 0.0278291 0)
(0.761118 0.0232615 0)
(0.756012 0.0190883 0)
(0.75185 0.0152497 0)
(0.748573 0.011691 0)
(0.746132 0.00836076 0)
(0.744484 0.00520981 0)
(0.743599 0.00218974 0)
(0.743454 -0.000748743 0)
(0.744036 -0.00365762 0)
(0.745343 -0.00659391 0)
(0.747383 -0.0096225 0)
(0.750176 -0.01282 0)
(0.753755 -0.0162795 0)
(0.758164 -0.0201172 0)
(0.763458 -0.024481 0)
(0.769702 -0.0295604 0)
(0.776963 -0.0355999 0)
(0.785296 -0.0429121 0)
(0.794725 -0.0518885 0)
(0.805199 -0.0630007 0)
(0.816542 -0.0767772 0)
(0.828377 -0.0937336 0)
(0.840055 -0.114229 0)
(0.850632 -0.138228 0)
(0.858994 -0.164996 0)
(1.00471 0.0639267 0)
(1.02437 0.169805 0)
(1.05519 0.244945 0)
(1.08471 0.28973 0)
(1.10611 0.309599 0)
(1.11749 0.31119 0)
(1.11929 0.300589 0)
(1.11304 0.282657 0)
(1.10068 0.260927 0)
(1.0841 0.237788 0)
(1.06493 0.21475 0)
(1.04444 0.192702 0)
(1.02359 0.172116 0)
(1.00306 0.153195 0)
(0.983324 0.135979 0)
(0.964685 0.120412 0)
(0.947323 0.106389 0)
(0.93133 0.0937825 0)
(0.916739 0.0824553 0)
(0.90354 0.0722748 0)
(0.891698 0.0631148 0)
(0.881157 0.0548589 0)
(0.871857 0.0474005 0)
(0.86373 0.040643 0)
(0.85671 0.0344987 0)
(0.850731 0.0288879 0)
(0.845732 0.023738 0)
(0.841658 0.0189818 0)
(0.838459 0.0145566 0)
(0.836092 0.0104032 0)
(0.834521 0.00646401 0)
(0.833716 0.00268197 0)
(0.833658 -0.00100109 0)
(0.834334 -0.00464648 0)
(0.83574 -0.00832087 0)
(0.83788 -0.0120992 0)
(0.840767 -0.0160683 0)
(0.844422 -0.020331 0)
(0.848874 -0.0250124 0)
(0.854155 -0.0302655 0)
(0.860297 -0.0362797 0)
(0.867322 -0.0432874 0)
(0.875229 -0.051571 0)
(0.883972 -0.0614625 0)
(0.893429 -0.073333 0)
(0.903363 -0.0875597 0)
(0.913382 -0.104459 0)
(0.922916 -0.124177 0)
(0.931241 -0.146539 0)
(0.937605 -0.170895 0)
(1.00335 0.0528678 0)
(1.01892 0.144897 0)
(1.04574 0.215607 0)
(1.07451 0.263219 0)
(1.09914 0.290049 0)
(1.11695 0.300105 0)
(1.12717 0.29772 0)
(1.13021 0.286809 0)
(1.12715 0.270549 0)
(1.11933 0.251327 0)
(1.10804 0.230838 0)
(1.09444 0.21022 0)
(1.07949 0.190196 0)
(1.06393 0.171196 0)
(1.04833 0.153445 0)
(1.0331 0.137033 0)
(1.01854 0.121968 0)
(1.00484 0.108203 0)
(0.992119 0.095661 0)
(0.980441 0.084252 0)
(0.969836 0.0738781 0)
(0.960304 0.0644415 0)
(0.951826 0.0558472 0)
(0.944373 0.0480047 0)
(0.937907 0.0408288 0)
(0.932387 0.0342392 0)
(0.927771 0.0281608 0)
(0.924018 0.0225228 0)
(0.921092 0.0172574 0)
(0.918959 0.0122998 0)
(0.91759 0.00758606 0)
(0.91696 0.00305253 0)
(0.917053 -0.00136605 0)
(0.917857 -0.00573828 0)
(0.919366 -0.0101382 0)
(0.921581 -0.0146479 0)
(0.924508 -0.0193608 0)
(0.928156 -0.0243852 0)
(0.932538 -0.0298485 0)
(0.937665 -0.035902 0)
(0.943539 -0.0427257 0)
(0.950147 -0.0505313 0)
(0.957447 -0.0595631 0)
(0.965346 -0.0700921 0)
(0.973686 -0.0823996 0)
(0.982212 -0.0967447 0)
(0.990559 -0.113309 0)
(0.99825 -0.132116 0)
(1.00474 -0.152947 0)
(1.0095 -0.175263 0)
(1.00249 0.0443045 0)
(1.01505 0.124148 0)
(1.03815 0.189077 0)
(1.06496 0.236597 0)
(1.09043 0.267254 0)
(1.11176 0.283233 0)
(1.12755 0.287412 0)
(1.13747 0.282739 0)
(1.14189 0.271856 0)
(1.1416 0.256936 0)
(1.1375 0.239661 0)
(1.13054 0.221271 0)
(1.12156 0.202641 0)
(1.11126 0.18436 0)
(1.10024 0.166805 0)
(1.08896 0.150197 0)
(1.07777 0.134652 0)
(1.06694 0.120208 0)
(1.05664 0.106857 0)
(1.04702 0.0945584 0)
(1.03816 0.0832524 0)
(1.03009 0.0728685 0)
(1.02286 0.0633309 0)
(1.01646 0.0545623 0)
(1.01088 0.0464854 0)
(1.00611 0.0390246 0)
(1.00214 0.0321067 0)
(0.998928 0.0256604 0)
(0.996463 0.0196164 0)
(0.99472 0.0139066 0)
(0.993679 0.00846353 0)
(0.993322 0.0032189 0)
(0.993636 -0.00189731 0)
(0.994611 -0.00695861 0)
(0.996241 -0.0120439 0)
(0.998523 -0.0172394 0)
(1.00146 -0.0226417 0)
(1.00504 -0.0283602 0)
(1.00928 -0.0345201 0)
(1.01416 -0.0412656 0)
(1.01966 -0.0487619 0)
(1.02574 -0.0571956 0)
(1.03234 -0.066772 0)
(1.03933 -0.0777062 0)
(1.04655 -0.0902061 0)
(1.05374 -0.104443 0)
(1.06059 -0.120511 0)
(1.06671 -0.138371 0)
(1.07167 -0.157802 0)
(1.07511 -0.178368 0)
(1.00193 0.0374762 0)
(1.01223 0.106736 0)
(1.03212 0.165463 0)
(1.05657 0.21111 0)
(1.08153 0.243295 0)
(1.10442 0.263016 0)
(1.12362 0.272058 0)
(1.13835 0.272515 0)
(1.14848 0.266461 0)
(1.15433 0.255745 0)
(1.15645 0.24191 0)
(1.15551 0.226182 0)
(1.15218 0.209491 0)
(1.14707 0.19252 0)
(1.14073 0.17575 0)
(1.13362 0.159505 0)
(1.12612 0.143992 0)
(1.11851 0.129329 0)
(1.11104 0.115575 0)
(1.10386 0.10274 0)
(1.09712 0.0908083 0)
(1.09089 0.0797405 0)
(1.08524 0.0694857 0)
(1.0802 0.0599841 0)
(1.0758 0.0511717 0)
(1.07205 0.0429815 0)
(1.06894 0.0353458 0)
(1.06648 0.0281966 0)
(1.06465 0.0214657 0)
(1.06344 0.0150848 0)
(1.06285 0.00898494 0)
(1.06286 0.00309604 0)
(1.06346 -0.00265446 0)
(1.06466 -0.00834261 0)
(1.06644 -0.0140495 0)
(1.06879 -0.0198628 0)
(1.07172 -0.0258792 0)
(1.07521 -0.0322056 0)
(1.07926 -0.0389616 0)
(1.08383 -0.0462809 0)
(1.0889 -0.0543113 0)
(1.09441 -0.0632136 0)
(1.10028 -0.0731565 0)
(1.10636 -0.0843077 0)
(1.11251 -0.0968174 0)
(1.11848 -0.110795 0)
(1.124 -0.12628 0)
(1.12876 -0.143203 0)
(1.13245 -0.16136 0)
(1.13478 -0.180402 0)
(1.00154 0.0318993 0)
(1.01014 0.0919813 0)
(1.02733 0.144562 0)
(1.04939 0.187314 0)
(1.07315 0.219418 0)
(1.09637 0.241148 0)
(1.11742 0.253508 0)
(1.13532 0.257911 0)
(1.14961 0.255906 0)
(1.16026 0.248988 0)
(1.16752 0.238496 0)
(1.17179 0.22556 0)
(1.17356 0.211094 0)
(1.17331 0.195813 0)
(1.1715 0.180255 0)
(1.16855 0.164813 0)
(1.16483 0.149763 0)
(1.16062 0.13529 0)
(1.15617 0.121508 0)
(1.15169 0.10848 0)
(1.14733 0.0962287 0)
(1.14319 0.0847505 0)
(1.13938 0.0740202 0)
(1.13595 0.0639992 0)
(1.13296 0.0546392 0)
(1.13043 0.0458853 0)
(1.12839 0.0376783 0)
(1.12684 0.029956 0)
(1.12579 0.0226541 0)
(1.12525 0.0157066 0)
(1.12521 0.00904576 0)
(1.12568 0.00260156 0)
(1.12665 -0.00369866 0)
(1.12811 -0.00993114 0)
(1.13007 -0.0161768 0)
(1.13252 -0.0225224 0)
(1.13544 -0.0290618 0)
(1.13883 -0.0358973 0)
(1.14267 -0.0431404 0)
(1.14692 -0.0509123 0)
(1.15154 -0.0593429 0)
(1.15646 -0.0685682 0)
(1.1616 -0.0787251 0)
(1.16682 -0.0899422 0)
(1.17197 -0.102326 0)
(1.17684 -0.115945 0)
(1.1812 -0.130802 0)
(1.18479 -0.14682 0)
(1.18738 -0.163818 0)
(1.18876 -0.181513 0)
(1.00126 0.0272539 0)
(1.00854 0.0793483 0)
(1.02351 0.126067 0)
(1.04335 0.165384 0)
(1.0656 0.196326 0)
(1.08838 0.218746 0)
(1.11022 0.233123 0)
(1.13004 0.240352 0)
(1.14721 0.241541 0)
(1.16148 0.237851 0)
(1.17283 0.23039 0)
(1.18146 0.220152 0)
(1.18766 0.207985 0)
(1.19178 0.194585 0)
(1.19417 0.180508 0)
(1.1952 0.166183 0)
(1.19516 0.15193 0)
(1.19436 0.137982 0)
(1.19301 0.124501 0)
(1.19133 0.11159 0)
(1.18949 0.0993092 0)
(1.18761 0.0876867 0)
(1.18581 0.076724 0)
(1.18417 0.0664039 0)
(1.18275 0.0566955 0)
(1.1816 0.0475576 0)
(1.18076 0.0389415 0)
(1.18026 0.0307931 0)
(1.18012 0.0230539 0)
(1.18035 0.0156625 0)
(1.18096 0.00855395 0)
(1.18196 0.00166076 0)
(1.18335 -0.00508788 0)
(1.18514 -0.0117664 0)
(1.18731 -0.0184534 0)
(1.18987 -0.0252327 0)
(1.1928 -0.0321935 0)
(1.19609 -0.0394315 0)
(1.19972 -0.0470488 0)
(1.20365 -0.0551533 0)
(1.20783 -0.0638576 0)
(1.21218 -0.0732754 0)
(1.21663 -0.0835165 0)
(1.22104 -0.0946787 0)
(1.22528 -0.106837 0)
(1.22916 -0.120028 0)
(1.2325 -0.13424 0)
(1.23509 -0.149391 0)
(1.23673 -0.165327 0)
(1.23728 -0.181817 0)
(1.00105 0.0233197 0)
(1.0073 0.0684203 0)
(1.02042 0.109651 0)
(1.03827 0.145298 0)
(1.05894 0.174376 0)
(1.08088 0.196516 0)
(1.10279 0.211861 0)
(1.12363 0.22093 0)
(1.1427 0.224482 0)
(1.15957 0.223385 0)
(1.17407 0.218525 0)
(1.18623 0.210741 0)
(1.19616 0.200784 0)
(1.20408 0.189304 0)
(1.21025 0.176839 0)
(1.21493 0.163825 0)
(1.21838 0.150606 0)
(1.22085 0.137443 0)
(1.22255 0.12453 0)
(1.22368 0.112002 0)
(1.22439 0.0999505 0)
(1.22484 0.0884304 0)
(1.22513 0.0774672 0)
(1.22537 0.0670642 0)
(1.22562 0.0572076 0)
(1.22596 0.0478704 0)
(1.22643 0.0390154 0)
(1.22708 0.0305976 0)
(1.22793 0.0225662 0)
(1.22901 0.0148652 0)
(1.23033 0.00743486 0)
(1.23193 0.000211403 0)
(1.23379 -0.00687234 0)
(1.23593 -0.0138872 0)
(1.23835 -0.0209081 0)
(1.24104 -0.0280138 0)
(1.244 -0.0352878 0)
(1.24721 -0.0428179 0)
(1.25064 -0.050696 0)
(1.25426 -0.0590171 0)
(1.25802 -0.0678775 0)
(1.26184 -0.0773715 0)
(1.26564 -0.0875863 0)
(1.26932 -0.0985956 0)
(1.27273 -0.110451 0)
(1.27574 -0.12317 0)
(1.27818 -0.13673 0)
(1.27989 -0.151054 0)
(1.28071 -0.166009 0)
(1.28053 -0.181407 0)
(1.00089 0.0199397 0)
(1.00633 0.0588718 0)
(1.01792 0.0950138 0)
(1.03403 0.126934 0)
(1.05315 0.153712 0)
(1.07405 0.17488 0)
(1.09559 0.190374 0)
(1.11682 0.200454 0)
(1.13702 0.205614 0)
(1.1557 0.206479 0)
(1.17256 0.203738 0)
(1.18748 0.198075 0)
(1.20047 0.190135 0)
(1.21162 0.180497 0)
(1.22108 0.169663 0)
(1.22903 0.158054 0)
(1.23567 0.146014 0)
(1.24119 0.133818 0)
(1.24578 0.121677 0)
(1.24962 0.109749 0)
(1.25284 0.0981477 0)
(1.25559 0.0869484 0)
(1.25799 0.0761968 0)
(1.26013 0.0659142 0)
(1.2621 0.0561025 0)
(1.26397 0.0467478 0)
(1.26581 0.0378247 0)
(1.26765 0.0292977 0)
(1.26954 0.0211239 0)
(1.27152 0.0132545 0)
(1.27361 0.00563523 0)
(1.27583 -0.00179225 0)
(1.2782 -0.00909033 0)
(1.28072 -0.016325 0)
(1.28341 -0.0235659 0)
(1.28626 -0.0308862 0)
(1.28926 -0.0383621 0)
(1.2924 -0.0460731 0)
(1.29566 -0.0541009 0)
(1.29899 -0.0625281 0)
(1.30236 -0.0714362 0)
(1.30569 -0.0809027 0)
(1.3089 -0.0909965 0)
(1.31191 -0.101773 0)
(1.31459 -0.113265 0)
(1.31682 -0.12548 0)
(1.31847 -0.138389 0)
(1.31941 -0.151921 0)
(1.31951 -0.165963 0)
(1.31867 -0.180361 0)
(1.00077 0.0169978 0)
(1.00555 0.0504465 0)
(1.01588 0.0818843 0)
(1.03048 0.110127 0)
(1.04817 0.134352 0)
(1.06795 0.154064 0)
(1.08887 0.169083 0)
(1.11008 0.1795 0)
(1.13087 0.185611 0)
(1.15072 0.187854 0)
(1.16928 0.186747 0)
(1.18632 0.182833 0)
(1.20175 0.176651 0)
(1.21557 0.168701 0)
(1.22783 0.159433 0)
(1.23863 0.149238 0)
(1.24811 0.138446 0)
(1.25641 0.127331 0)
(1.26367 0.116108 0)
(1.27004 0.104947 0)
(1.27565 0.0939749 0)
(1.28062 0.0832822 0)
(1.28506 0.0729293 0)
(1.28907 0.0629517 0)
(1.29274 0.0533643 0)
(1.29615 0.0441653 0)
(1.29935 0.0353395 0)
(1.3024 0.0268608 0)
(1.30535 0.0186945 0)
(1.30824 0.0107988 0)
(1.31111 0.00312597 0)
(1.31397 -0.00437633 0)
(1.31686 -0.0117648 0)
(1.31978 -0.0190997 0)
(1.32275 -0.0264446 0)
(1.32577 -0.033866 0)
(1.32883 -0.0414328 0)
(1.33192 -0.0492156 0)
(1.33501 -0.0572861 0)
(1.33809 -0.0657153 0)
(1.34109 -0.0745716 0)
(1.34397 -0.0839182 0)
(1.34665 -0.0938091 0)
(1.34905 -0.104285 0)
(1.35108 -0.115367 0)
(1.35262 -0.127054 0)
(1.35357 -0.139315 0)
(1.35382 -0.152086 0)
(1.35328 -0.165271 0)
(1.35186 -0.178741 0)
(1.00067 0.0144062 0)
(1.00492 0.0429394 0)
(1.01421 0.0700277 0)
(1.02752 0.0946987 0)
(1.04392 0.116236 0)
(1.0626 0.134164 0)
(1.08278 0.148244 0)
(1.10369 0.15846 0)
(1.12469 0.164972 0)
(1.14525 0.168074 0)
(1.16498 0.168143 0)
(1.1836 0.165604 0)
(1.20094 0.160891 0)
(1.21691 0.154427 0)
(1.23149 0.146604 0)
(1.24473 0.137773 0)
(1.25668 0.128238 0)
(1.26744 0.118259 0)
(1.2771 0.108047 0)
(1.28579 0.0977732 0)
(1.2936 0.0875701 0)
(1.30064 0.0775362 0)
(1.30702 0.0677415 0)
(1.31281 0.0582313 0)
(1.31811 0.0490305 0)
(1.32299 0.0401467 0)
(1.32752 0.0315737 0)
(1.33175 0.0232938 0)
(1.33574 0.0152797 0)
(1.33953 0.00749671 0)
(1.34316 -9.62016e-05 0)
(1.34667 -0.00754522 0)
(1.35007 -0.0149008 0)
(1.35338 -0.022217 0)
(1.35663 -0.0295509 0)
(1.35982 -0.0369618 0)
(1.36294 -0.044511 0)
(1.36598 -0.0522605 0)
(1.36894 -0.0602723 0)
(1.37177 -0.0686067 0)
(1.37445 -0.0773206 0)
(1.37691 -0.0864649 0)
(1.37911 -0.0960817 0)
(1.38097 -0.1062 0)
(1.3824 -0.116833 0)
(1.38333 -0.127974 0)
(1.38366 -0.13959 0)
(1.3833 -0.151626 0)
(1.38217 -0.163999 0)
(1.38023 -0.176601 0)
(1.0006 0.0120962 0)
(1.00441 0.0361842 0)
(1.01285 0.0592398 0)
(1.02506 0.0804704 0)
(1.04032 0.0992662 0)
(1.05798 0.115192 0)
(1.07737 0.127993 0)
(1.09783 0.13759 0)
(1.11878 0.144052 0)
(1.13972 0.147566 0)
(1.16022 0.148401 0)
(1.17997 0.146878 0)
(1.19876 0.143344 0)
(1.21644 0.138145 0)
(1.23292 0.131613 0)
(1.24818 0.124054 0)
(1.26224 0.11574 0)
(1.27512 0.106908 0)
(1.2869 0.0977568 0)
(1.29764 0.0884507 0)
(1.30744 0.07912 0)
(1.31637 0.0698652 0)
(1.32451 0.0607604 0)
(1.33196 0.0518566 0)
(1.33877 0.0431848 0)
(1.34504 0.0347598 0)
(1.35081 0.026582 0)
(1.35615 0.0186405 0)
(1.36112 0.010915 0)
(1.36577 0.00337694 0)
(1.37012 -0.00400824 0)
(1.37423 -0.0112805 0)
(1.37812 -0.0184841 0)
(1.38181 -0.0256666 0)
(1.38532 -0.0328783 0)
(1.38867 -0.0401715 0)
(1.39184 -0.0475996 0)
(1.39484 -0.0552165 0)
(1.39766 -0.0630748 0)
(1.40027 -0.0712254 0)
(1.40264 -0.0797149 0)
(1.40473 -0.0885839 0)
(1.40649 -0.0978645 0)
(1.40785 -0.107577 0)
(1.40875 -0.117728 0)
(1.40912 -0.128307 0)
(1.40888 -0.139283 0)
(1.40797 -0.150605 0)
(1.40633 -0.162202 0)
(1.4039 -0.173985 0)
(1.00054 0.0100131 0)
(1.00401 0.0300437 0)
(1.01174 0.0493431 0)
(1.02303 0.0672713 0)
(1.0373 0.0833195 0)
(1.05403 0.0971053 0)
(1.07266 0.108383 0)
(1.09262 0.117041 0)
(1.11336 0.123091 0)
(1.13443 0.126644 0)
(1.1554 0.127887 0)
(1.17595 0.127059 0)
(1.19582 0.124427 0)
(1.21481 0.12027 0)
(1.2328 0.114861 0)
(1.24972 0.10846 0)
(1.26551 0.101302 0)
(1.2802 0.0935968 0)
(1.29378 0.0855232 0)
(1.30631 0.0772323 0)
(1.31784 0.0688465 0)
(1.32844 0.0604626 0)
(1.33816 0.0521537 0)
(1.34708 0.043972 0)
(1.35526 0.0359516 0)
(1.36278 0.0281111 0)
(1.36968 0.0204556 0)
(1.37604 0.0129794 0)
(1.3819 0.00566731 0)
(1.38732 -0.00150329 0)
(1.39234 -0.0085614 0)
(1.397 -0.0155411 0)
(1.40132 -0.0224804 0)
(1.40535 -0.0294207 0)
(1.40909 -0.0364056 0)
(1.41257 -0.0434803 0)
(1.41578 -0.0506909 0)
(1.41873 -0.058083 0)
(1.42141 -0.0657011 0)
(1.4238 -0.0735872 0)
(1.42588 -0.0817789 0)
(1.42762 -0.090308 0)
(1.42896 -0.0991984 0)
(1.42987 -0.108464 0)
(1.43028 -0.118105 0)
(1.43014 -0.12811 0)
(1.4294 -0.138448 0)
(1.42799 -0.149074 0)
(1.42587 -0.159927 0)
(1.423 -0.17093 0)
(1.00049 0.00811217 0)
(1.00368 0.0244027 0)
(1.01084 0.040182 0)
(1.02138 0.0549407 0)
(1.03482 0.0682637 0)
(1.05073 0.0798268 0)
(1.06866 0.0894071 0)
(1.08809 0.0968857 0)
(1.10855 0.10224 0)
(1.1296 0.10553 0)
(1.15083 0.10688 0)
(1.17191 0.106464 0)
(1.19255 0.104485 0)
(1.21254 0.101159 0)
(1.2317 0.096708 0)
(1.24993 0.0913432 0)
(1.26714 0.0852622 0)
(1.28329 0.0786427 0)
(1.29838 0.0716405 0)
(1.31241 0.0643881 0)
(1.32542 0.0569953 0)
(1.33744 0.0495499 0)
(1.34851 0.0421199 0)
(1.35871 0.0347548 0)
(1.36808 0.0274884 0)
(1.37668 0.0203402 0)
(1.38458 0.0133179 0)
(1.39182 0.006419 0)
(1.39846 -0.000367645 0)
(1.40455 -0.00706022 0)
(1.41014 -0.0136827 0)
(1.41527 -0.0202638 0)
(1.41997 -0.0268359 0)
(1.42427 -0.0334344 0)
(1.42819 -0.0400964 0)
(1.43176 -0.0468604 0)
(1.43498 -0.0537652 0)
(1.43786 -0.0608492 0)
(1.44039 -0.068149 0)
(1.44257 -0.0756986 0)
(1.44436 -0.0835278 0)
(1.44575 -0.0916608 0)
(1.44671 -0.100115 0)
(1.44719 -0.108897 0)
(1.44715 -0.118006 0)
(1.44655 -0.127426 0)
(1.44533 -0.13713 0)
(1.44346 -0.147076 0)
(1.4409 -0.15721 0)
(1.43762 -0.167466 0)
(1.00045 0.00635613 0)
(1.00342 0.0191625 0)
(1.01012 0.0316186 0)
(1.02005 0.0433283 0)
(1.0328 0.0539624 0)
(1.04804 0.0632567 0)
(1.06534 0.0710207 0)
(1.08429 0.0771419 0)
(1.10444 0.081582 0)
(1.12538 0.0843679 0)
(1.14672 0.0855803 0)
(1.16813 0.0853407 0)
(1.18931 0.0837983 0)
(1.21002 0.0811183 0)
(1.23007 0.0774711 0)
(1.2493 0.0730245 0)
(1.26762 0.0679371 0)
(1.28494 0.0623538 0)
(1.30124 0.0564033 0)
(1.31649 0.0501965 0)
(1.33069 0.0438262 0)
(1.34387 0.0373679 0)
(1.35607 0.0308804 0)
(1.36732 0.0244075 0)
(1.37767 0.0179792 0)
(1.38718 0.0116139 0)
(1.39589 0.00531936 0)
(1.40387 -0.000905494 0)
(1.41115 -0.00706917 0)
(1.41779 -0.0131864 0)
(1.42384 -0.0192772 0)
(1.42934 -0.0253656 0)
(1.43433 -0.0314787 0)
(1.43883 -0.0376462 0)
(1.44287 -0.0438994 0)
(1.44648 -0.0502703 0)
(1.44967 -0.0567912 0)
(1.45244 -0.0634932 0)
(1.4548 -0.0704061 0)
(1.45674 -0.0775565 0)
(1.45825 -0.0849674 0)
(1.45931 -0.0926564 0)
(1.45989 -0.100635 0)
(1.45996 -0.108905 0)
(1.45949 -0.117463 0)
(1.45845 -0.126291 0)
(1.4568 -0.135364 0)
(1.4545 -0.144643 0)
(1.45152 -0.154081 0)
(1.44785 -0.163619 0)
(1.00042 0.00471293 0)
(1.00323 0.0142369 0)
(1.00957 0.0235291 0)
(1.01902 0.032293 0)
(1.03123 0.0402791 0)
(1.04591 0.0472823 0)
(1.0627 0.0531501 0)
(1.08122 0.0577864 0)
(1.10107 0.0611494 0)
(1.12186 0.063247 0)
(1.14323 0.0641285 0)
(1.16483 0.0638757 0)
(1.18636 0.0625938 0)
(1.20757 0.0604021 0)
(1.22825 0.0574267 0)
(1.24823 0.0537932 0)
(1.26737 0.049622 0)
(1.28558 0.0450245 0)
(1.30279 0.0401006 0)
(1.31897 0.0349369 0)
(1.3341 0.0296067 0)
(1.34819 0.0241697 0)
(1.36125 0.018673 0)
(1.37332 0.0131514 0)
(1.38444 0.0076291 0)
(1.39465 0.00212072 0)
(1.40399 -0.00336768 0)
(1.41252 -0.00883727 0)
(1.42028 -0.0142953 0)
(1.42734 -0.0197544 0)
(1.43372 -0.025231 0)
(1.43947 -0.0307454 0)
(1.44464 -0.0363201 0)
(1.44925 -0.0419796 0)
(1.45334 -0.0477497 0)
(1.45692 -0.0536565 0)
(1.46002 -0.0597259 0)
(1.46265 -0.0659827 0)
(1.4648 -0.0724501 0)
(1.46649 -0.0791484 0)
(1.4677 -0.0860942 0)
(1.46842 -0.0932994 0)
(1.46863 -0.10077 0)
(1.46831 -0.108506 0)
(1.46743 -0.116498 0)
(1.46597 -0.12473 0)
(1.4639 -0.133176 0)
(1.4612 -0.141802 0)
(1.45783 -0.150563 0)
(1.45379 -0.159409 0)
(1.0004 0.00315447 0)
(1.00308 0.00954899 0)
(1.00917 0.0158004 0)
(1.01826 0.0217022 0)
(1.03006 0.0270784 0)
(1.04431 0.0317827 0)
(1.06071 0.0357034 0)
(1.07888 0.0387668 0)
(1.09848 0.0409368 0)
(1.11912 0.0422114 0)
(1.14045 0.0426183 0)
(1.16214 0.0422086 0)
(1.18388 0.0410507 0)
(1.20542 0.0392245 0)
(1.22652 0.0368153 0)
(1.247 0.0339092 0)
(1.26671 0.0305896 0)
(1.28553 0.0269342 0)
(1.30338 0.0230129 0)
(1.32022 0.0188866 0)
(1.336 0.0146069 0)
(1.35073 0.0102157 0)
(1.3644 0.00574573 0)
(1.37705 0.00122115 0)
(1.3887 -0.00334194 0)
(1.39938 -0.00793447 0)
(1.40915 -0.0125537 0)
(1.41805 -0.0172022 0)
(1.42613 -0.0218872 0)
(1.43343 -0.0266199 0)
(1.44 -0.0314145 0)
(1.44588 -0.0362877 0)
(1.45112 -0.0412581 0)
(1.45574 -0.0463456 0)
(1.45978 -0.0515708 0)
(1.46327 -0.0569544 0)
(1.46622 -0.0625164 0)
(1.46864 -0.0682759 0)
(1.47056 -0.0742499 0)
(1.47196 -0.080453 0)
(1.47285 -0.0868963 0)
(1.47322 -0.0935866 0)
(1.47306 -0.100526 0)
(1.47235 -0.107709 0)
(1.47107 -0.115127 0)
(1.46921 -0.122761 0)
(1.46674 -0.130587 0)
(1.46364 -0.138571 0)
(1.4599 -0.146675 0)
(1.45551 -0.154854 0)
(1.00039 0.00165542 0)
(1.00299 0.00502857 0)
(1.0089 0.0083277 0)
(1.01776 0.0114292 0)
(1.02928 0.0142274 0)
(1.04324 0.0166329 0)
(1.05935 0.0185767 0)
(1.07728 0.0200116 0)
(1.09668 0.0209122 0)
(1.11719 0.0212735 0)
(1.13847 0.0211079 0)
(1.16018 0.0204421 0)
(1.18202 0.0193134 0)
(1.20373 0.017766 0)
(1.22506 0.0158479 0)
(1.24583 0.0136078 0)
(1.26587 0.0110932 0)
(1.28505 0.00834791 0)
(1.30328 0.00541159 0)
(1.3205 0.00231841 0)
(1.33667 -0.00090316 0)
(1.35176 -0.00423046 0)
(1.36579 -0.00764649 0)
(1.37876 -0.0111396 0)
(1.39069 -0.0147032 0)
(1.40163 -0.0183349 0)
(1.41161 -0.0220365 0)
(1.42068 -0.0258132 0)
(1.42889 -0.029673 0)
(1.43627 -0.0336264 0)
(1.44288 -0.0376858 0)
(1.44875 -0.0418652 0)
(1.45393 -0.0461797 0)
(1.45846 -0.0506449 0)
(1.46236 -0.0552767 0)
(1.46566 -0.0600907 0)
(1.46839 -0.0651018 0)
(1.47056 -0.0703233 0)
(1.47218 -0.0757671 0)
(1.47327 -0.0814424 0)
(1.47381 -0.0873551 0)
(1.47382 -0.0935076 0)
(1.47327 -0.0998979 0)
(1.47217 -0.106519 0)
(1.47049 -0.113358 0)
(1.46823 -0.120396 0)
(1.46538 -0.127609 0)
(1.4619 -0.134967 0)
(1.45781 -0.142433 0)
(1.45308 -0.149966 0)
(1.00038 0.000192278 0)
(1.00294 0.000609849 0)
(1.00876 0.00101133 0)
(1.01749 0.00135226 0)
(1.02887 0.00159441 0)
(1.04267 0.00170517 0)
(1.05862 0.00165858 0)
(1.07641 0.00143602 0)
(1.09568 0.00102613 0)
(1.1161 0.000424288 0)
(1.13731 -0.000368354 0)
(1.159 -0.00134596 0)
(1.18085 -0.00249927 0)
(1.2026 -0.00381679 0)
(1.224 -0.00528596 0)
(1.24485 -0.00689413 0)
(1.265 -0.00862931 0)
(1.2843 -0.0104809 0)
(1.30265 -0.0124398 0)
(1.31999 -0.0144994 0)
(1.33627 -0.0166548 0)
(1.35147 -0.0189037 0)
(1.36558 -0.0212455 0)
(1.37862 -0.0236822 0)
(1.3906 -0.0262174 0)
(1.40156 -0.0288563 0)
(1.41154 -0.0316061 0)
(1.42057 -0.034475 0)
(1.42871 -0.0374725 0)
(1.436 -0.0406088 0)
(1.44248 -0.0438952 0)
(1.4482 -0.0473432 0)
(1.4532 -0.0509647 0)
(1.45751 -0.0547715 0)
(1.46117 -0.058775 0)
(1.4642 -0.0629863 0)
(1.46664 -0.0674152 0)
(1.46849 -0.0720702 0)
(1.46977 -0.076958 0)
(1.4705 -0.082083 0)
(1.47067 -0.0874466 0)
(1.47029 -0.0930473 0)
(1.46935 -0.0988793 0)
(1.46785 -0.104933 0)
(1.46578 -0.111194 0)
(1.46313 -0.117642 0)
(1.45989 -0.124254 0)
(1.45605 -0.131001 0)
(1.4516 -0.137849 0)
(1.44655 -0.14476 0)
(1.00038 -0.00125739 0)
(1.00293 -0.00377033 0)
(1.00874 -0.00624496 0)
(1.01746 -0.00864792 0)
(1.02882 -0.0109506 0)
(1.04259 -0.0131293 0)
(1.05852 -0.0151665 0)
(1.07626 -0.0170517 0)
(1.0955 -0.0187811 0)
(1.11586 -0.0203578 0)
(1.13702 -0.0217906 0)
(1.15864 -0.0230933 0)
(1.18041 -0.0242836 0)
(1.20208 -0.0253819 0)
(1.22339 -0.0264102 0)
(1.24415 -0.0273918 0)
(1.26418 -0.0283495 0)
(1.28336 -0.0293062 0)
(1.30158 -0.0302836 0)
(1.31878 -0.0313022 0)
(1.33491 -0.0323814 0)
(1.34995 -0.0335392 0)
(1.36388 -0.0347921 0)
(1.37673 -0.0361557 0)
(1.38851 -0.0376442 0)
(1.39926 -0.0392709 0)
(1.40901 -0.0410483 0)
(1.4178 -0.042988 0)
(1.42568 -0.0451011 0)
(1.4327 -0.047398 0)
(1.4389 -0.0498889 0)
(1.44432 -0.0525829 0)
(1.449 -0.0554892 0)
(1.45298 -0.0586157 0)
(1.4563 -0.0619701 0)
(1.45897 -0.0655588 0)
(1.46104 -0.0693871 0)
(1.46251 -0.0734588 0)
(1.4634 -0.077776 0)
(1.46372 -0.0823387 0)
(1.46349 -0.0871443 0)
(1.4627 -0.0921873 0)
(1.46135 -0.0974591 0)
(1.45944 -0.102947 0)