/*--------------------------------*- C++ -*----------------------------------*\
| =========                 |                                                 |
| \\      /  F ield         | OpenFOAM: The Open Source CFD Toolbox           |
|  \\    /   O peration     | Version:  2306                                  |
|   \\  /    A nd           | Website:  www.openfoam.com                      |
|    \\/     M anipulation  |                                                 |
\*---------------------------------------------------------------------------*/
FoamFile
{
    version     2.0;
    format      ascii;
    arch        "LSB;label=32;scalar=64";
    class       volScalarField;
    location    "3.82";
    object      p;
}
// * * * * * * * * * * * * * * * * * * * * * * * * * * * * * * * * * * * * * //

dimensions      [0 2 -2 0 0 0 0];

internalField   nonuniform List<scalar> 
1900
(
0.0573796
0.0331551
0.0127599
-0.00258591
-0.0136127
-0.024179
-0.0346347
-0.0468199
-0.059401
-0.0734915
0.028119
0.0199196
0.00860078
-0.00295632
-0.0139875
-0.0241841
-0.0346295
-0.0451579
-0.0566729
-0.0677426
0.0190289
0.0145374
0.00701999
-0.00235104
-0.0124385
-0.0224218
-0.0322059
-0.0417635
-0.0511963
-0.0602904
0.0133306
0.0102569
0.00460616
-0.00304366
-0.0118972
-0.0211399
-0.0303339
-0.0392513
-0.0478482
-0.0560101
0.0111101
0.00857463
0.00383584
-0.00281233
-0.0107911
-0.0193945
-0.028069
-0.0364914
-0.0445112
-0.0520386
0.0117478
0.00926736
0.00465728
-0.00180678
-0.00954381
-0.0178453
-0.026152
-0.0341464
-0.0417038
-0.0487952
0.0152067
0.0122613
0.00698156
-9.94288e-05
-0.00815654
-0.0164391
-0.0244811
-0.0321049
-0.0393021
-0.0461071
0.0219085
0.017614
0.0107182
0.00225253
-0.00656292
-0.0149812
-0.0228063
-0.0301316
-0.0371063
-0.0437919
0.0320518
0.0239538
0.0135204
0.00306357
-0.00623757
-0.0143415
-0.0217001
-0.028736
-0.0356121
-0.0422879
0.0609031
0.0382322
0.0185283
0.00447031
-0.00518047
-0.0128669
-0.0200846
-0.0272885
-0.034428
-0.0412974
-0.0967416
-0.0967752
-0.0968199
-0.0968737
-0.0969338
-0.0969998
-0.0970712
-0.097147
-0.0972257
-0.097306
-0.0973863
-0.0974648
-0.0975401
-0.0976104
-0.0976744
-0.0977303
-0.097777
-0.0978131
-0.0978374
-0.0978491
-0.0978472
-0.0978312
-0.0978005
-0.0977547
-0.0976936
-0.0976171
-0.0975251
-0.0974176
-0.0972949
-0.0971572
-0.0970051
-0.0968392
-0.0966608
-0.0964708
-0.0962701
-0.0960587
-0.0958344
-0.0955912
-0.0953181
-0.094997
-0.0946022
-0.0941002
-0.0934517
-0.0926132
-0.091538
-0.0901749
-0.088465
-0.0863394
-0.0837181
-0.0805138
-0.0766366
-0.0720025
-0.0665571
-0.0602769
-0.0531804
-0.0453366
-0.0368352
-0.0278044
-0.0184076
-0.00883577
0.000719704
0.0100589
0.0189916
0.0273434
0.0349645
0.0417287
0.0475491
0.0523751
0.0561809
0.0589776
0.0607927
0.0616848
0.0617191
0.0609811
0.0595519
0.0575277
0.0549898
0.0520296
0.0487153
0.0451254
0.0413082
0.0373267
0.0332066
0.028997
0.0246992
0.0203541
0.0159345
0.0114866
0.00694239
0.00238238
-0.0967372
-0.0967688
-0.0967958
-0.0968372
-0.0968883
-0.0969478
-0.097014
-0.0970853
-0.0971602
-0.0972371
-0.0973144
-0.0973906
-0.0974639
-0.0975326
-0.0975952
-0.0976501
-0.0976959
-0.0977312
-0.0977549
-0.0977659
-0.0977633
-0.0977464
-0.0977145
-0.0976672
-0.0976042
-0.0975251
-0.09743
-0.0973186
-0.0971909
-0.0970472
-0.0968874
-0.0967116
-0.0965201
-0.096313
-0.0960903
-0.0958513
-0.0955938
-0.095313
-0.0950008
-0.094644
-0.0942244
-0.0937176
-0.0930931
-0.0923141
-0.0913363
-0.0901065
-0.0885598
-0.0866158
-0.0841767
-0.0811326
-0.0773795
-0.0728458
-0.0674997
-0.0613282
-0.0543319
-0.0465483
-0.0380761
-0.0290516
-0.0196389
-0.0100375
-0.000444976
0.00893784
0.0179095
0.0262969
0.0339652
0.0407515
0.0465921
0.0514387
0.0552625
0.0580757
0.0599047
0.0608117
0.0608605
0.0601435
0.0587388
0.0567462
0.0542407
0.0513198
0.048044
0.0445002
0.0407264
0.0367968
0.0327233
0.0285704
0.024322
0.020038
0.0156717
0.0112846
0.00680305
0.00232102
-0.0966195
-0.0967008
-0.0967463
-0.0967997
-0.0968559
-0.0969174
-0.0969852
-0.0970583
-0.0971353
-0.0972148
-0.097295
-0.0973743
-0.0974507
-0.0975227
-0.0975885
-0.0976464
-0.0976951
-0.0977331
-0.097759
-0.0977718
-0.0977704
-0.0977542
-0.0977225
-0.0976749
-0.0976111
-0.097531
-0.0974346
-0.097322
-0.0971934
-0.0970489
-0.0968885
-0.096712
-0.096519
-0.0963093
-0.096082
-0.0958358
-0.0955684
-0.0952761
-0.0949538
-0.0945947
-0.0941891
-0.0937223
-0.0931732
-0.09251
-0.0916864
-0.0906409
-0.0892939
-0.0875487
-0.0852931
-0.0824166
-0.0788298
-0.0744323
-0.0691519
-0.0629788
-0.055947
-0.0481265
-0.03962
-0.0305661
-0.0211106
-0.0114959
-0.00190816
0.0074612
0.0164161
0.0247874
0.0324179
0.0391831
0.0449948
0.0498111
0.0536047
0.0563927
0.0582018
0.0590995
0.059148
0.0584433
0.0570607
0.0551047
0.0526464
0.0497872
0.0465829
0.0431242
0.0394441
0.0356204
0.0316606
0.0276314
0.0235147
0.0193693
0.0151518
0.0109192
0.00660734
0.00228324
-0.0967022
-0.0967757
-0.0967798
-0.0968054
-0.0968509
-0.0969129
-0.0969861
-0.0970666
-0.0971518
-0.0972397
-0.0973282
-0.0974152
-0.0974989
-0.0975774
-0.0976489
-0.0977117
-0.0977644
-0.0978054
-0.0978334
-0.0978473
-0.0978463
-0.0978295
-0.0977965
-0.0977469
-0.0976805
-0.0975971
-0.0974971
-0.0973806
-0.0972479
-0.0970992
-0.0969345
-0.0967534
-0.0965549
-0.0963378
-0.0961013
-0.0958448
-0.0955679
-0.09527
-0.0949499
-0.0946042
-0.094227
-0.0938098
-0.0933372
-0.0927784
-0.0920798
-0.091169
-0.0899587
-0.0883502
-0.0862193
-0.0834418
-0.0799073
-0.0755542
-0.0703125
-0.0641815
-0.0571898
-0.0494118
-0.0409575
-0.0319697
-0.0226157
-0.013106
-0.00364604
0.00557309
0.0143604
0.0225503
0.0299919
0.0365749
0.0422122
0.0468658
0.0505147
0.0531815
0.0548969
0.0557317
0.0557496
0.0550474
0.0537
0.0518112
0.0494509
0.0467174
0.043665
0.04038
0.0368954
0.0332831
0.0295531
0.0257648
0.0219058
0.0180258
0.0140917
0.0101474
0.00614002
0.00211363
-0.0963754
-0.0965807
-0.0966713
-0.0967752
-0.0968738
-0.0969669
-0.0970592
-0.0971542
-0.0972516
-0.0973496
-0.0974467
-0.0975409
-0.0976304
-0.0977134
-0.0977882
-0.0978532
-0.0979068
-0.0979476
-0.0979743
-0.0979857
-0.097981
-0.0979598
-0.0979216
-0.0978663
-0.0977938
-0.0977043
-0.0975982
-0.0974763
-0.0973388
-0.0971861
-0.0970181
-0.0968342
-0.0966329
-0.0964123
-0.0961717
-0.0959112
-0.0956316
-0.0953339
-0.095019
-0.094686
-0.0943299
-0.0939422
-0.093511
-0.0930077
-0.0923645
-0.0915054
-0.0903311
-0.0887356
-0.0866083
-0.0838333
-0.0803078
-0.0759613
-0.0707456
-0.0646594
-0.0577407
-0.0500707
-0.0417638
-0.0329695
-0.0238595
-0.0146284
-0.00548018
0.00339471
0.0118158
0.0196273
0.0266918
0.0329099
0.0382062
0.0425498
0.0459297
0.0483743
0.0499218
0.0506438
0.0506076
0.0499065
0.0486165
0.046835
0.0446314
0.0420955
0.0392814
0.0362653
0.0330818
0.0297921
0.0264107
0.0229851
0.0195111
0.0160257
0.0125076
0.0089868
0.00542783
0.00186088
-0.0972082
-0.0972303
-0.0971286
-0.0970832
-0.0970935
-0.0971511
-0.0972388
-0.0973395
-0.0974424
-0.0975441
-0.0976425
-0.0977362
-0.0978233
-0.0979024
-0.0979722
-0.0980311
-0.098078
-0.0981116
-0.0981304
-0.0981336
-0.0981204
-0.0980906
-0.0980441
-0.097981
-0.0979013
-0.097805
-0.097693
-0.097566
-0.0974247
-0.0972692
-0.0970993
-0.0969141
-0.0967117
-0.0964895
-0.0962483
-0.09599
-0.095714
-0.0954211
-0.095112
-0.0947858
-0.0944363
-0.0940478
-0.0935974
-0.0930569
-0.0923666
-0.091447
-0.0902021
-0.088529
-0.0863186
-0.0834663
-0.0798803
-0.0755002
-0.0702932
-0.0642654
-0.0574632
-0.0499748
-0.0419212
-0.033454
-0.0247449
-0.0159794
-0.00734724
0.000971618
0.00881303
0.0160364
0.0225238
0.0281903
0.0329786
0.0368681
0.0398618
0.041994
0.0433118
0.0438859
0.0437868
0.043101
0.0419042
0.040283
0.0383051
0.0360477
0.0335635
0.0309155
0.0281389
0.0252817
0.022362
0.0194145
0.0164418
0.0134681
0.0104835
0.00750541
0.00451485
0.00152968
-0.0958784
-0.0965265
-0.0967292
-0.0969858
-0.0972013
-0.0973645
-0.0974868
-0.0975876
-0.0976802
-0.0977682
-0.097852
-0.0979305
-0.0980024
-0.0980665
-0.0981218
-0.098167
-0.0982012
-0.0982231
-0.0982312
-0.0982244
-0.098202
-0.0981639
-0.0981098
-0.0980398
-0.0979539
-0.0978515
-0.0977349
-0.097605
-0.0974619
-0.0973052
-0.0971348
-0.0969497
-0.0967482
-0.0965268
-0.0962808
-0.0960112
-0.0957208
-0.0954092
-0.0950742
-0.0947113
-0.0943115
-0.0938589
-0.0933274
-0.0926793
-0.0918561
-0.0907811
-0.0893634
-0.0875071
-0.0851155
-0.0821011
-0.0783908
-0.0739388
-0.0687283
-0.0627788
-0.0561469
-0.0489279
-0.041247
-0.0332549
-0.0251175
-0.0170091
-0.00910007
-0.00154949
0.00550356
0.0119411
0.0176706
0.0226272
0.0267753
0.0301078
0.0326419
0.034417
0.0354864
0.035917
0.0357789
0.0351486
0.0340976
0.0326992
0.0310163
0.0291114
0.0270337
0.0248318
0.02254
0.020193
0.0178108
0.0154159
0.0130166
0.0106259
0.00824264
0.00587417
0.00351438
0.00117171
-0.100595
-0.0992147
-0.0985863
-0.0981529
-0.0979264
-0.097837
-0.097825
-0.0978491
-0.0978874
-0.0979325
-0.0979813
-0.0980306
-0.0980784
-0.0981229
-0.0981624
-0.0981947
-0.0982187
-0.0982311
-0.0982302
-0.0982158
-0.0981876
-0.0981456
-0.0980892
-0.0980177
-0.0979307
-0.097827
-0.0977044
-0.0975655
-0.0974119
-0.0972427
-0.097056
-0.0968496
-0.0966209
-0.0963668
-0.0960844
-0.0957722
-0.0954287
-0.0950513
-0.0946346
-0.0941708
-0.0936468
-0.0930428
-0.0923289
-0.091464
-0.0903927
-0.0890462
-0.0873451
-0.0852071
-0.0825534
-0.0793172
-0.0754491
-0.070923
-0.06574
-0.0599347
-0.0535724
-0.0467515
-0.0395945
-0.0322456
-0.024857
-0.0175848
-0.0105758
-0.00396377
0.00214435
0.00765972
0.0125191
0.0166814
0.0201326
0.0228784
0.0249464
0.0263772
0.0272247
0.0275479
0.027412
0.0268809
0.0260194
0.0248864
0.0235382
0.0220227
0.0203842
0.0186577
0.0168755
0.0150603
0.0132335
0.0114069
0.00959318
0.00779588
0.00602142
0.00426799
0.00253833
0.000828801
-0.0947478
-0.0958391
-0.0966778
-0.0972902
-0.0976069
-0.0977251
-0.097759
-0.0977715
-0.0977868
-0.0978164
-0.0978553
-0.097896
-0.0979366
-0.0979756
-0.0980115
-0.0980422
-0.0980671
-0.0980857
-0.0980918
-0.098081
-0.0980524
-0.098006
-0.0979429
-0.0978624
-0.0977621
-0.0976399
-0.0974945
-0.0973262
-0.0971348
-0.0969188
-0.0966758
-0.096403
-0.0960966
-0.0957528
-0.0953672
-0.0949358
-0.0944541
-0.093917
-0.0933168
-0.0926424
-0.0918779
-0.0910014
-0.0899843
-0.0887883
-0.0873654
-0.0856594
-0.0836081
-0.081149
-0.0782241
-0.0747864
-0.0708047
-0.0662735
-0.0612129
-0.0556709
-0.0497199
-0.0434568
-0.0369954
-0.0304634
-0.0239895
-0.0177014
-0.0117136
-0.00612888
-0.00102739
0.00352987
0.00750762
0.010886
0.0136675
0.0158656
0.0175125
0.018645
0.0193132
0.0195655
0.0194597
0.0190472
0.0183856
0.0175209
0.0165033
0.0153672
0.0141526
0.0128821
0.011586
0.0102758
0.0089745
0.00768369
0.00642083
0.00517988
0.00397543
0.0027957
0.00165404
0.000532939
-0.117446
-0.102513
-0.100585
-0.0991083
-0.0981932
-0.0977644
-0.0975896
-0.0975265
-0.0975056
-0.0975073
-0.0975439
-0.0976046
-0.097669
-0.0977288
-0.0977822
-0.0978279
-0.0978634
-0.0978849
-0.097887
-0.097865
-0.0978171
-0.0977441
-0.0976461
-0.0975212
-0.0973662
-0.0971781
-0.0969546
-0.0966939
-0.0963941
-0.0960533
-0.095669
-0.0952384
-0.0947577
-0.0942226
-0.0936285
-0.0929705
-0.0922434
-0.0914408
-0.0905545
-0.0895731
-0.0884811
-0.0872569
-0.0858719
-0.0842928
-0.0824822
-0.0803992
-0.0780011
-0.0752476
-0.0721041
-0.0685475
-0.0645696
-0.0601817
-0.0554148
-0.0503196
-0.0449639
-0.039432
-0.0338193
-0.028229
-0.0227629
-0.0175185
-0.0125796
-0.00801979
-0.00389473
-0.000242988
0.00291995
0.00558767
0.00777073
0.00948485
0.0107623
0.0116357
0.0121499
0.0123445
0.01227
0.0119674
0.0114879
0.010867
0.0101495
0.00935893
0.00853096
0.0076768
0.00682477
0.00597521
0.00515234
0.00434726
0.00358314
0.00284285
0.00215087
0.00148219
0.00086427
0.000261125
-0.0849728
-0.0914412
-0.0939497
-0.0947896
-0.095233
-0.0956305
-0.0959978
-0.0963057
-0.0965717
-0.0968032
-0.0970017
-0.0971695
-0.0973097
-0.0974259
-0.0975201
-0.097592
-0.0976384
-0.0976546
-0.0976356
-0.0975771
-0.0974764
-0.0973321
-0.0971432
-0.0969083
-0.0966252
-0.0962919
-0.0959065
-0.0954672
-0.0949727
-0.0944208
-0.0938081
-0.0931305
-0.0923848
-0.0915674
-0.0906748
-0.0897028
-0.0886467
-0.0875005
-0.0862568
-0.0849059
-0.083435
-0.0818276
-0.0800639
-0.0781215
-0.0759757
-0.0736012
-0.0709732
-0.0680702
-0.0648767
-0.0613858
-0.057602
-0.0535431
-0.0492402
-0.0447378
-0.0400909
-0.0353664
-0.0306394
-0.0259899
-0.0214966
-0.0172343
-0.013266
-0.00964249
-0.00639674
-0.00354915
-0.00110447
0.000938624
0.00259378
0.0038783
0.00482353
0.0054603
0.00583014
0.00596741
0.00591659
0.00571078
0.00539376
0.00499238
0.00454513
0.0040675
0.00359001
0.00311462
0.00266557
0.00223287
0.0018398
0.00146728
0.00114341
0.000839748
0.000591138
0.000356185
0.000179143
2.36045e-06
-0.0789959
-0.0867765
-0.0907611
-0.0921869
-0.0926202
-0.0929544
-0.0934479
-0.0940579
-0.0946707
-0.0952113
-0.0956576
-0.0960187
-0.0963127
-0.0965539
-0.0967492
-0.0968985
-0.0969974
-0.0970396
-0.0970192
-0.096931
-0.0967717
-0.0965393
-0.0962331
-0.095853
-0.0953989
-0.0948709
-0.094269
-0.0935933
-0.0928435
-0.0920193
-0.0911193
-0.0901422
-0.0890864
-0.0879503
-0.086732
-0.0854291
-0.0840385
-0.0825562
-0.0809774
-0.0792957
-0.0775031
-0.0755901
-0.0735452
-0.0713555
-0.0690069
-0.0664846
-0.0637754
-0.0608693
-0.0577612
-0.0544523
-0.0509521
-0.0472794
-0.0434635
-0.0395442
-0.0355707
-0.0315974
-0.0276814
-0.0238813
-0.0202552
-0.0168574
-0.013733
-0.0109161
-0.0084279
-0.00627925
-0.00446731
-0.00297935
-0.00179506
-0.000893046
-0.000243825
0.000182887
0.000425917
0.000519937
0.000504624
0.00040763
0.000260954
8.2114e-05
-0.000101539
-0.000280706
-0.00043306
-0.000561985
-0.000650799
-0.000715373
-0.000738542
-0.000745041
-0.00070707
-0.000659362
-0.000560766
-0.000464629
-0.000310839
-0.00017932
-0.0687666
-0.0759656
-0.0813095
-0.0847919
-0.0869258
-0.0883717
-0.089578
-0.0907233
-0.0918196
-0.0928213
-0.0936909
-0.0944187
-0.0950153
-0.0954976
-0.0958788
-0.096165
-0.0963565
-0.0964501
-0.0964419
-0.0963283
-0.0961075
-0.0957792
-0.0953445
-0.0948056
-0.0941653
-0.0934266
-0.0925925
-0.0916657
-0.0906488
-0.0895441
-0.0883532
-0.0870771
-0.0857165
-0.0842715
-0.0827418
-0.0811266
-0.0794248
-0.0776347
-0.0757541
-0.0737802
-0.0717097
-0.0695386
-0.0672626
-0.0648769
-0.0623767
-0.0597576
-0.057016
-0.0541497
-0.0511594
-0.0480499
-0.0448315
-0.0415214
-0.0381459
-0.0347408
-0.0313506
-0.0280243
-0.0248108
-0.0217554
-0.0188959
-0.0162613
-0.0138735
-0.0117516
-0.00991286
-0.00836732
-0.00710631
-0.00610072
-0.00531331
-0.0047132
-0.00427537
-0.00397714
-0.00378728
-0.00367062
-0.00359114
-0.00352663
-0.00346184
-0.00339313
-0.00331118
-0.00321399
-0.0030903
-0.00294332
-0.002764
-0.00256406
-0.00233185
-0.00208654
-0.00180901
-0.0015295
-0.00121304
-0.00090965
-0.000556679
-0.000244855
-0.0635204
-0.0701402
-0.0756098
-0.0798232
-0.0829038
-0.0851624
-0.0869408
-0.0884776
-0.0898809
-0.0911681
-0.0923192
-0.0933139
-0.0941456
-0.0948202
-0.0953475
-0.0957354
-0.0959872
-0.0961028
-0.09608
-0.0959171
-0.0956135
-0.0951705
-0.0945913
-0.0938803
-0.0930429
-0.0920848
-0.0910118
-0.0898298
-0.0885443
-0.0871601
-0.0856817
-0.0841122
-0.0824542
-0.0807095
-0.0788793
-0.0769645
-0.074966
-0.0728844
-0.0707206
-0.0684754
-0.06615
-0.0637458
-0.0612647
-0.0587093
-0.0560829
-0.0533895
-0.0506333
-0.0478191
-0.0449526
-0.0420406
-0.0390925
-0.0361216
-0.0331481
-0.0302019
-0.0273242
-0.024565
-0.021975
-0.0195929
-0.0174363
-0.0154997
-0.0137671
-0.0122345
-0.0109202
-0.00984617
-0.009007
-0.00835915
-0.00783732
-0.00739409
-0.00701551
-0.00670392
-0.00645176
-0.00623487
-0.00602152
-0.00578933
-0.00552793
-0.005241
-0.004936
-0.00462311
-0.00430421
-0.00398213
-0.00365148
-0.00331467
-0.00296462
-0.0026085
-0.00223613
-0.00186185
-0.0014658
-0.00107696
-0.000652121
-0.000259206
-0.0589905
-0.0652596
-0.0707187
-0.0752712
-0.0789234
-0.0818082
-0.0841362
-0.0861077
-0.0878557
-0.0894386
-0.0908643
-0.0921191
-0.0931897
-0.0940708
-0.0947643
-0.0952748
-0.0956058
-0.0957589
-0.0957339
-0.0955311
-0.0951522
-0.094601
-0.0938831
-0.0930057
-0.0919767
-0.0908045
-0.089498
-0.0880661
-0.0865174
-0.0848602
-0.0831014
-0.0812467
-0.0793005
-0.0772665
-0.0751474
-0.072946
-0.0706651
-0.068308
-0.0658787
-0.0633822
-0.0608242
-0.0582113
-0.0555512
-0.0528528
-0.0501265
-0.0473839
-0.0446375
-0.0418997
-0.0391814
-0.0364913
-0.0338366
-0.0312248
-0.0286654
-0.0261745
-0.0237816
-0.021536
-0.0194964
-0.0177072
-0.0161703
-0.0148362
-0.0136386
-0.0125468
-0.01158
-0.0107793
-0.0101602
-0.00968348
-0.00926765
-0.00884485
-0.00840073
-0.00796123
-0.00755206
-0.00717832
-0.00682841
-0.00649006
-0.00615
-0.0057989
-0.00543414
-0.00505986
-0.00467958
-0.00429676
-0.00391085
-0.00352347
-0.00313207
-0.00273888
-0.00233925
-0.00193763
-0.00152525
-0.00111266
-0.00067726
-0.000256365
-0.055401
-0.0614663
-0.0669048
-0.0716384
-0.0756438
-0.0789745
-0.0817522
-0.0841228
-0.0862072
-0.0880774
-0.0897596
-0.0912514
-0.0925396
-0.0936129
-0.0944651
-0.0950951
-0.0955034
-0.0956908
-0.0956579
-0.0954065
-0.0949412
-0.0942696
-0.0934014
-0.0923474
-0.0911188
-0.0897269
-0.0881833
-0.0865
-0.0846886
-0.0827601
-0.0807245
-0.07859
-0.0763635
-0.0740507
-0.0716563
-0.0691851
-0.066642
-0.0640333
-0.0613664
-0.0586508
-0.0558975
-0.0531191
-0.0503291
-0.0475412
-0.0447704
-0.0420346
-0.0393549
-0.0367513
-0.0342378
-0.0318213
-0.0295035
-0.0272842
-0.0251607
-0.0231305
-0.0211977
-0.0193962
-0.0177848
-0.0164233
-0.0153162
-0.014386
-0.0135396
-0.0127278
-0.0119574
-0.0112477
-0.0106251
-0.010105
-0.00965288
-0.00922245
-0.0087993
-0.00839181
-0.00798564
-0.00757221
-0.00715086
-0.0067233
-0.0062948
-0.00587319
-0.00546306
-0.00506406
-0.00467366
-0.0042896
-0.00390766
-0.00352496
-0.00313852
-0.00274813
-0.00235136
-0.00194908
-0.00153784
-0.00111989
-0.000688242
-0.000261098
-0.0525179
-0.0584786
-0.0639078
-0.0687395
-0.0729532
-0.0765816
-0.0797015
-0.0824118
-0.0848061
-0.0869509
-0.0888792
-0.0905964
-0.0920922
-0.0933515
-0.0943614
-0.0951139
-0.0956043
-0.0958306
-0.0957927
-0.0954929
-0.0949379
-0.0941398
-0.0931147
-0.0918792
-0.0904486
-0.0888378
-0.0870616
-0.0851351
-0.0830733
-0.0808902
-0.0785987
-0.0762101
-0.0737337
-0.0711776
-0.0685488
-0.0658544
-0.0631018
-0.0602999
-0.0574598
-0.0545953
-0.0517234
-0.0488634
-0.0460358
-0.0432585
-0.0405446
-0.037913
-0.0353896
-0.032996
-0.0307416
-0.0286234
-0.0266308
-0.0247577
-0.0229955
-0.0213426
-0.0198038
-0.0183745
-0.0170866
-0.0159657
-0.0150021
-0.0141677
-0.0134265
-0.0127562
-0.012158
-0.0116444
-0.0111578
-0.010628
-0.0100392
-0.00943177
-0.00885963
-0.00833992
-0.00787655
-0.00745827
-0.00706161
-0.0066698
-0.00627597
-0.00587914
-0.00548084
-0.00508525
-0.00469386
-0.0043055
-0.00391823
-0.00353045
-0.00314044
-0.00274679
-0.00234813
-0.00194399
-0.00153246
-0.00111433
-0.000690552
-0.000257448
-0.0501487
-0.0560853
-0.0615177
-0.0664017
-0.0707376
-0.0745638
-0.0779404
-0.0809352
-0.0836121
-0.0860215
-0.0881928
-0.0901338
-0.0918357
-0.0932814
-0.0944526
-0.095334
-0.0959147
-0.0961887
-0.0961544
-0.0958147
-0.095178
-0.0942596
-0.0930827
-0.0916707
-0.0900462
-0.0882309
-0.0862454
-0.0841095
-0.0818417
-0.0794588
-0.0769759
-0.0744058
-0.0717595
-0.0690464
-0.066275
-0.0634538
-0.0605917
-0.0576993
-0.0547895
-0.0518783
-0.0489858
-0.0461355
-0.0433542
-0.040666
-0.0380862
-0.0356357
-0.0333329
-0.0311842
-0.0291816
-0.027307
-0.0255335
-0.0238405
-0.0222345
-0.0207494
-0.0194266
-0.0183035
-0.0173763
-0.0165851
-0.0157859
-0.0149066
-0.0139587
-0.0130232
-0.0122064
-0.0115197
-0.0109436
-0.0104255
-0.00991623
-0.00940632
-0.00890413
-0.0084237
-0.00797419
-0.00754594
-0.00712821
-0.00671478
-0.00630407
-0.00589733
-0.00549562
-0.00509813
-0.00470446
-0.00431357
-0.00392379
-0.00353346
-0.00314107
-0.00274545
-0.0023454
-0.00193978
-0.00152736
-0.00111022
-0.000691705
-0.000253224
-0.0486348
-0.0545376
-0.0599364
-0.064823
-0.0692217
-0.0731735
-0.0767288
-0.0799368
-0.0828402
-0.0854733
-0.0878564
-0.0899937
-0.0918757
-0.0934842
-0.0947971
-0.0957935
-0.0964564
-0.0967751
-0.096746
-0.0963737
-0.0956704
-0.0946543
-0.0933472
-0.091778
-0.0899794
-0.087984
-0.0858223
-0.0835212
-0.0811042
-0.0785908
-0.075997
-0.0733359
-0.0706178
-0.0678515
-0.0650445
-0.0622043
-0.0593388
-0.0564575
-0.0535722
-0.050698
-0.0478542
-0.0450646
-0.0423589
-0.0397699
-0.037336
-0.0350857
-0.0330302
-0.0311586
-0.0294367
-0.0278127
-0.0262341
-0.0246467
-0.0230378
-0.0214374
-0.0199125
-0.0185393
-0.0173679
-0.0163642
-0.0154752
-0.0146337
-0.0138221
-0.0130476
-0.0123328
-0.0116971
-0.0111212
-0.0105689
-0.0100217
-0.00948115
-0.00895971
-0.00846685
-0.00800292
-0.00756326
-0.00713989
-0.00672592
-0.00631729
-0.00591243
-0.00551116
-0.0051135
-0.00471895
-0.00432651
-0.0039348
-0.00354243
-0.00314805
-0.00275052
-0.00234879
-0.00194174
-0.00152868
-0.00111179
-0.00069332
-0.000251878
-0.0477306
-0.0536515
-0.0590516
-0.0639571
-0.0684081
-0.0724477
-0.0761204
-0.0794702
-0.0825348
-0.085337
-0.0878851
-0.0901751
-0.0921933
-0.0939199
-0.0953322
-0.0964085
-0.0971314
-0.0974899
-0.0974813
-0.0971118
-0.0963965
-0.0953582
-0.0940255
-0.0924304
-0.0906063
-0.0885864
-0.0864021
-0.0840815
-0.0816493
-0.0791257
-0.0765275
-0.0738678
-0.0711573
-0.0684046
-0.0656168
-0.0628008
-0.0599637
-0.0571137
-0.0542607
-0.0514177
-0.0486007
-0.0458301
-0.0431298
-0.0405274
-0.0380498
-0.035719
-0.0335469
-0.0315316
-0.0296583
-0.0279064
-0.0262145
-0.024562
-0.0229481
-0.0214001
-0.0199686
-0.0186965
-0.0175955
-0.0166298
-0.0157277
-0.0148445
-0.0139763
-0.0131502
-0.0124008
-0.011735
-0.0111334
-0.0105676
-0.01002
-0.00948867
-0.0089788
-0.00849436
-0.00803488
-0.00759489
-0.00716829
-0.00675061
-0.00633937
-0.00593348
-0.00553232
-0.0051352
-0.0047412
-0.00434913
-0.0039576
-0.0035652
-0.00317062
-0.00277271
-0.00237047
-0.00196302
-0.00154971
-0.00113087
-0.000705976
-0.000257689
)
;

boundaryField
{
    fixedWalls
    {
        type            zeroGradient;
    }
    inflowWall
    {
        type            zeroGradient;
    }
    outflowWall
    {
        type            fixedValue;
        value           uniform 0;
    }
    frontAndBack
    {
        type            empty;
    }
}


// ************************************************************************* //
