/*--------------------------------*- C++ -*----------------------------------*\
| =========                 |                                                 |
| \\      /  F ield         | OpenFOAM: The Open Source CFD Toolbox           |
|  \\    /   O peration     | Version:  2306                                  |
|   \\  /    A nd           | Website:  www.openfoam.com                      |
|    \\/     M anipulation  |                                                 |
\*---------------------------------------------------------------------------*/
FoamFile
{
    version     2.0;
    format      ascii;
    arch        "LSB;label=32;scalar=64";
    class       volScalarField;
    location    "0.08";
    object      p;
}
// * * * * * * * * * * * * * * * * * * * * * * * * * * * * * * * * * * * * * //

dimensions      [0 2 -2 0 0 0 0];

internalField   nonuniform List<scalar> 
475
(
3.14527
2.42501
1.95843
1.61855
1.25152
2.56602
2.27309
1.95448
1.66846
1.40426
2.46094
2.26844
2.00272
1.74635
1.52697
2.60521
2.31917
2.02499
1.78094
1.58206
3.19636
2.48252
2.0474
1.77711
1.56774
1.04395
1.06572
1.11044
1.15863
1.19531
1.21346
1.21219
1.19449
1.16523
1.12922
1.09021
1.05069
1.01204
0.974847
0.939203
0.904957
0.871851
0.839619
0.80802
0.776865
0.746006
0.71534
0.684792
0.654314
0.623875
0.593455
0.563042
0.532629
0.502213
0.471793
0.441369
0.410941
0.38051
0.350075
0.319638
0.2892
0.25876
0.228319
0.197878
0.167436
0.136993
0.10655
0.0761075
0.0456645
0.0152215
1.02462
1.05184
1.09271
1.1363
1.17072
1.18937
1.19066
1.17675
1.1517
1.11964
1.08393
1.04691
1.01001
0.973931
0.938944
0.905043
0.872093
0.839904
0.808294
0.777101
0.746198
0.715489
0.684905
0.654398
0.623936
0.593498
0.563072
0.532649
0.502227
0.471803
0.441375
0.410945
0.380512
0.350077
0.319639
0.2892
0.25876
0.228319
0.197878
0.167436
0.136993
0.10655
0.0761075
0.0456645
0.0152215
0.962328
1.02354
1.07417
1.12206
1.15896
1.17857
1.18018
1.16675
1.14258
1.11178
1.07754
1.042
1.00641
0.971413
0.937255
0.903961
0.871435
0.839531
0.808103
0.777022
0.746183
0.715508
0.68494
0.654437
0.623973
0.59353
0.563099
0.532671
0.502244
0.471816
0.441385
0.410952
0.380517
0.35008
0.319642
0.289202
0.258761
0.22832
0.197878
0.167436
0.136993
0.106551
0.0761076
0.0456646
0.0152216
0.875427
0.985837
1.05717
1.11217
1.15124
1.17023
1.17019
1.1555
1.1311
1.10106
1.06826
1.03447
1.00062
0.967179
0.934289
0.901966
0.870149
0.838743
0.807649
0.776783
0.746078
0.71548
0.684953
0.65447
0.624013
0.59357
0.563134
0.532701
0.502268
0.471834
0.4414
0.410963
0.380525
0.350086
0.319646
0.289205
0.258764
0.228322
0.197879
0.167437
0.136994
0.106551
0.0761078
0.0456647
0.0152216
0.596136
0.930037
1.05418
1.11339
1.14842
1.16234
1.15797
1.14072
1.11575
1.08673
1.05592
1.0245
0.992988
0.961599
0.930382
0.899342
0.86846
0.837704
0.807047
0.776464
0.745933
0.715437
0.684966
0.654509
0.624061
0.593618
0.563177
0.532737
0.502298
0.471858
0.441417
0.410977
0.380535
0.350093
0.319651
0.289209
0.258766
0.228323
0.19788
0.167437
0.136994
0.106551
0.076108
0.0456648
0.0152216
0.965799
1.04216
1.11183
1.14417
1.1579
1.15758
1.14493
1.12384
1.0982
1.07056
1.04219
1.01353
0.984661
0.95555
0.926158
0.896512
0.866638
0.836584
0.806398
0.776119
0.745776
0.715391
0.684979
0.65455
0.624112
0.593669
0.563223
0.532777
0.50233
0.471883
0.441437
0.410991
0.380546
0.350101
0.319657
0.289213
0.258769
0.228325
0.197882
0.167438
0.136995
0.106552
0.0761082
0.0456649
0.0152217
1.20677
1.16951
1.17888
1.17845
1.16815
1.15181
1.13061
1.10627
1.08072
1.05498
1.02928
1.0034
0.977055
0.95005
0.922346
0.89396
0.864996
0.835575
0.805815
0.77581
0.745637
0.715351
0.684993
0.65459
0.624161
0.593717
0.563267
0.532813
0.502359
0.471906
0.441455
0.411004
0.380556
0.350108
0.319662
0.289216
0.258772
0.228327
0.197883
0.167439
0.136996
0.106552
0.0761085
0.045665
0.0152217
1.35898
1.27231
1.2307
1.19893
1.16922
1.14142
1.11503
1.08977
1.0656
1.04223
1.01911
0.995619
0.971312
0.945954
0.919512
0.892066
0.863778
0.834829
0.805385
0.775585
0.745538
0.715327
0.685008
0.654624
0.624201
0.593757
0.563302
0.532843
0.502383
0.471925
0.441469
0.411015
0.380564
0.350114
0.319666
0.289219
0.258774
0.228329
0.197884
0.16744
0.136996
0.106552
0.0761086
0.0456651
0.0152217
1.42404
1.31493
1.24396
1.19368
1.15492
1.12378
1.09765
1.07463
1.05341
1.03291
1.01223
0.990696
0.96788
0.943624
0.917973
0.891086
0.863185
0.834494
0.805216
0.775517
0.745529
0.715349
0.685044
0.654664
0.624239
0.593789
0.563329
0.532864
0.5024
0.471938
0.441479
0.411022
0.380569
0.350118
0.319669
0.289221
0.258775
0.228329
0.197885
0.16744
0.136996
0.106552
0.0761087
0.0456651
0.0152217
1.40118
1.28103
1.20177
1.15047
1.1162
1.09192
1.07311
1.05684
1.04123
1.02505
1.0075
0.988087
0.966631
0.943194
0.917993
0.891326
0.863506
0.834819
0.805507
0.775762
0.745725
0.7155
0.685158
0.654747
0.624299
0.593832
0.563359
0.532885
0.502414
0.471947
0.441485
0.411026
0.380571
0.350119
0.31967
0.289222
0.258775
0.22833
0.197885
0.16744
0.136996
0.106552
0.0761086
0.0456651
0.0152216
)
;

boundaryField
{
    fixedWalls
    {
        type            zeroGradient;
    }
    inflowWall
    {
        type            zeroGradient;
    }
    outflowWall
    {
        type            fixedValue;
        value           uniform 0;
    }
    frontAndBack
    {
        type            empty;
    }
}


// ************************************************************************* //
