/*--------------------------------*- C++ -*----------------------------------*\
| =========                 |                                                 |
| \\      /  F ield         | OpenFOAM: The Open Source CFD Toolbox           |
|  \\    /   O peration     | Version:  2306                                  |
|   \\  /    A nd           | Website:  www.openfoam.com                      |
|    \\/     M anipulation  |                                                 |
\*---------------------------------------------------------------------------*/
FoamFile
{
    version     2.0;
    format      ascii;
    arch        "LSB;label=32;scalar=64";
    class       volScalarField;
    location    "3.38";
    object      p;
}
// * * * * * * * * * * * * * * * * * * * * * * * * * * * * * * * * * * * * * //

dimensions      [0 2 -2 0 0 0 0];

internalField   nonuniform List<scalar> 
1900
(
0.0581528
0.0339253
0.013527
-0.00182369
-0.0128569
-0.0234334
-0.0339025
-0.0461069
-0.0587129
-0.0728379
0.0288925
0.0206922
0.00937051
-0.00219081
-0.0132283
-0.0234332
-0.0338903
-0.044433
-0.0559653
-0.06705
0.0198057
0.0153134
0.00779397
-0.00158009
-0.0116716
-0.0216601
-0.0314503
-0.0410149
-0.0504559
-0.0595605
0.014111
0.0110368
0.00538485
-0.00226675
-0.0111227
-0.0203682
-0.0295655
-0.0384864
-0.0470873
-0.0552518
0.0118947
0.00935919
0.00462016
-0.00202829
-0.0100074
-0.0186111
-0.0272858
-0.035708
-0.043726
-0.0512496
0.0125368
0.0100567
0.00544722
-0.00101585
-0.00875147
-0.017051
-0.0253548
-0.0333449
-0.0408963
-0.0479795
0.0159998
0.0130551
0.00777671
0.000697868
-0.00735618
-0.0156345
-0.0236708
-0.0312872
-0.0384748
-0.0452678
0.0227051
0.0184115
0.0115178
0.00305521
-0.00575575
-0.0141679
-0.0219851
-0.0293002
-0.0362622
-0.0429321
0.0328513
0.0247546
0.0143237
0.00387082
-0.00542465
-0.013521
-0.02087
-0.0278935
-0.0347544
-0.0414114
0.0617039
0.0390344
0.0193335
0.00528006
-0.00436444
-0.0120425
-0.0192495
-0.0264397
-0.0335625
-0.0404115
-0.0961377
-0.0961716
-0.0962153
-0.0962678
-0.0963263
-0.0963906
-0.0964602
-0.0965341
-0.096611
-0.0966894
-0.0967679
-0.0968448
-0.0969187
-0.0969882
-0.0970519
-0.0971084
-0.0971566
-0.0971954
-0.0972238
-0.0972412
-0.0972469
-0.0972405
-0.0972216
-0.09719
-0.0971458
-0.097089
-0.0970201
-0.0969396
-0.0968484
-0.0967483
-0.0966412
-0.0965301
-0.0964181
-0.0963083
-0.0962023
-0.0960988
-0.0959909
-0.0958639
-0.0956938
-0.0954467
-0.095081
-0.0945503
-0.0938057
-0.0927944
-0.0914571
-0.0897214
-0.0874999
-0.0846924
-0.0811915
-0.0768854
-0.0716928
-0.06557
-0.0585122
-0.0505767
-0.0418567
-0.0324787
-0.0226103
-0.0124513
-0.00221839
0.0078671
0.0175899
0.0267493
0.0351682
0.0426997
0.049236
0.054709
0.0590862
0.0623694
0.0645888
0.0658038
0.0660879
0.0655322
0.0642334
0.0622965
0.0598194
0.0569016
0.0536278
0.0500823
0.0463296
0.0424349
0.0384408
0.0343941
0.0303163
0.0262396
0.0221658
0.0181176
0.014077
0.0100653
0.00604072
0.00204037
-0.0961337
-0.0961647
-0.096191
-0.0962313
-0.0962811
-0.0963392
-0.0964038
-0.0964734
-0.0965465
-0.0966216
-0.0966971
-0.0967716
-0.0968434
-0.0969112
-0.0969734
-0.0970287
-0.0970757
-0.0971135
-0.0971409
-0.0971572
-0.0971616
-0.0971537
-0.097133
-0.0970993
-0.0970524
-0.0969923
-0.0969193
-0.0968335
-0.0967358
-0.0966267
-0.0965076
-0.0963799
-0.0962453
-0.0961056
-0.0959619
-0.095813
-0.0956548
-0.0954776
-0.0952655
-0.0949958
-0.0946389
-0.0941589
-0.0935122
-0.0926443
-0.0914888
-0.0899601
-0.0879514
-0.0853376
-0.0819891
-0.0777995
-0.0726981
-0.0666865
-0.059747
-0.0518951
-0.0432133
-0.0338442
-0.023963
-0.0137742
-0.00349941
0.00663644
0.0164076
0.0256117
0.0340789
0.0416447
0.0482075
0.0537053
0.0581037
0.0614058
0.0636409
0.0648711
0.0651729
0.0646421
0.063372
0.0614689
0.0590279
0.0561511
0.0529199
0.0494218
0.0457166
0.0418742
0.0379303
0.0339389
0.0299119
0.0258914
0.0218669
0.0178746
0.0138813
0.00992496
0.00595159
0.00201352
-0.0960162
-0.0960975
-0.096142
-0.0961942
-0.0962491
-0.0963091
-0.0963753
-0.0964467
-0.0965218
-0.0965993
-0.0966775
-0.0967548
-0.0968295
-0.0969002
-0.0969652
-0.0970232
-0.0970727
-0.0971125
-0.0971417
-0.0971592
-0.0971643
-0.0971566
-0.0971356
-0.0971012
-0.0970534
-0.0969922
-0.096918
-0.0968312
-0.0967323
-0.0966218
-0.0965002
-0.0963683
-0.0962269
-0.0960766
-0.0959177
-0.0957495
-0.0955703
-0.0953768
-0.0951632
-0.0949198
-0.0946286
-0.0942641
-0.0937858
-0.0931278
-0.092207
-0.090917
-0.0891316
-0.0867155
-0.0835465
-0.0795181
-0.0745335
-0.0685354
-0.0615552
-0.0536522
-0.0449262
-0.0355189
-0.0255976
-0.0153748
-0.00509749
0.00502648
0.0147802
0.023965
0.0324018
0.039943
0.0464771
0.0519436
0.0563102
0.0595852
0.0617991
0.0630181
0.0633174
0.0627963
0.0615472
0.0596797
0.0572856
0.0544701
0.0513102
0.0478964
0.0442835
0.0405445
0.03671
0.0328371
0.0289327
0.0250423
0.0211508
0.0172963
0.0134432
0.00962735
0.00579467
0.0019868
-0.0961015
-0.0961738
-0.0961767
-0.0962008
-0.0962446
-0.0963049
-0.0963762
-0.0964547
-0.0965376
-0.0966232
-0.0967094
-0.0967942
-0.096876
-0.0969529
-0.0970233
-0.0970859
-0.097139
-0.0971815
-0.0972123
-0.0972306
-0.0972356
-0.097227
-0.0972046
-0.0971681
-0.0971176
-0.0970532
-0.0969752
-0.0968839
-0.0967797
-0.0966627
-0.096533
-0.0963904
-0.0962344
-0.0960658
-0.0958867
-0.0957
-0.095509
-0.0953168
-0.0951234
-0.0949236
-0.094705
-0.0944467
-0.0941124
-0.0936138
-0.0928548
-0.09172
-0.0900808
-0.0877881
-0.0847033
-0.0807248
-0.0757763
-0.0698278
-0.0628929
-0.055035
-0.0463618
-0.0370221
-0.0271933
-0.0170891
-0.00694262
0.00302666
0.0126045
0.0215967
0.0298299
0.0371699
0.0435111
0.0487967
0.0529997
0.0561354
0.0582387
0.0593801
0.0596356
0.0591063
0.0578844
0.0560789
0.0537787
0.0510866
0.0480758
0.044834
0.0414126
0.0378814
0.0342687
0.0306281
0.0269664
0.0233247
0.01969
0.016095
0.0125086
0.00895803
0.00539545
0.00184811
-0.0957751
-0.0959795
-0.0960686
-0.0961707
-0.0962673
-0.0963584
-0.0964486
-0.0965414
-0.0966364
-0.096732
-0.0968267
-0.0969186
-0.097006
-0.0970872
-0.0971607
-0.097225
-0.0972787
-0.0973206
-0.0973495
-0.0973646
-0.0973655
-0.097352
-0.0973241
-0.0972818
-0.0972253
-0.097155
-0.0970713
-0.0969747
-0.0968652
-0.0967427
-0.096607
-0.0964572
-0.0962926
-0.0961131
-0.0959229
-0.0957272
-0.095532
-0.0953439
-0.0951664
-0.0949954
-0.0948132
-0.0945992
-0.0943546
-0.0939101
-0.0932049
-0.0921064
-0.0904784
-0.0881911
-0.0851131
-0.0811448
-0.0762188
-0.0703124
-0.0634475
-0.0556951
-0.0471687
-0.0380221
-0.0284385
-0.0186258
-0.00880796
0.000797241
0.00998293
0.018566
0.0263862
0.033322
0.0392815
0.0442174
0.0481124
0.0509897
0.0528916
0.0538919
0.0540687
0.0535219
0.052342
0.0506336
0.048482
0.0459825
0.0432047
0.0402282
0.0371014
0.0338863
0.0306102
0.0273188
0.0240207
0.0207485
0.0174942
0.0142811
0.0110866
0.00792746
0.00476919
0.00162868
-0.09661
-0.0966306
-0.0965268
-0.0964791
-0.0964871
-0.0965424
-0.0966279
-0.0967263
-0.0968268
-0.096926
-0.097022
-0.0971132
-0.0971981
-0.0972752
-0.0973433
-0.0974012
-0.0974477
-0.0974817
-0.097502
-0.0975082
-0.0975
-0.0974776
-0.0974412
-0.0973911
-0.0973277
-0.0972508
-0.0971617
-0.0970607
-0.0969477
-0.0968223
-0.0966837
-0.0965309
-0.0963625
-0.0961774
-0.0959857
-0.0957911
-0.0955985
-0.0954143
-0.0952411
-0.0950755
-0.0948966
-0.0946687
-0.0943516
-0.0938559
-0.0930785
-0.0918974
-0.0901822
-0.0878075
-0.0846566
-0.0806411
-0.075707
-0.0698425
-0.0630795
-0.0554972
-0.0472165
-0.0383949
-0.0292169
-0.0198857
-0.0106116
-0.00159928
0.00696104
0.0149035
0.0220878
0.0284096
0.0337968
0.0382167
0.0416662
0.0441773
0.0458009
0.0466126
0.0466925
0.0461348
0.0450273
0.0434649
0.0415275
0.0392992
0.036844
0.0342295
0.0315008
0.0287084
0.0258786
0.0230468
0.0202232
0.0174309
0.0146669
0.0119452
0.00925179
0.00659491
0.0039533
0.00133534
-0.0952738
-0.0959242
-0.0961257
-0.0963808
-0.0965948
-0.0967564
-0.0968769
-0.0969756
-0.0970659
-0.0971513
-0.0972324
-0.0973082
-0.0973776
-0.0974394
-0.0974926
-0.0975363
-0.0975697
-0.0975916
-0.0976006
-0.0975962
-0.0975785
-0.0975474
-0.0975032
-0.0974462
-0.0973764
-0.0972933
-0.0972004
-0.0970971
-0.0969827
-0.0968564
-0.0967177
-0.0965656
-0.096399
-0.0962149
-0.096012
-0.095802
-0.09559
-0.0953779
-0.0951633
-0.0949372
-0.094678
-0.0943492
-0.0938987
-0.0932438
-0.092283
-0.0909029
-0.0889852
-0.0864193
-0.0831092
-0.0789855
-0.0740111
-0.0681891
-0.0615646
-0.0542269
-0.046303
-0.0379517
-0.0293534
-0.0207013
-0.0121889
-0.00399837
0.00370721
0.0107886
0.0171335
0.0226612
0.0273238
0.0311064
0.0340221
0.0361105
0.0374289
0.0380504
0.0380532
0.0375221
0.0365381
0.0351828
0.0335282
0.0316438
0.0295866
0.0274106
0.0251558
0.0228609
0.0205504
0.018249
0.0159683
0.0137223
0.0115126
0.00934509
0.00721375
0.00511976
0.00305313
0.0010164
-0.0999947
-0.0986156
-0.0979861
-0.0975514
-0.0973234
-0.0972324
-0.0972184
-0.09724
-0.0972756
-0.0973178
-0.0973634
-0.0974095
-0.0974543
-0.097496
-0.097533
-0.0975634
-0.0975864
-0.0975981
-0.097598
-0.0975863
-0.0975634
-0.0975288
-0.0974823
-0.0974237
-0.0973529
-0.0972677
-0.0971656
-0.0970511
-0.0969242
-0.0967825
-0.0966236
-0.0964453
-0.0962459
-0.0960238
-0.0957796
-0.0955166
-0.095236
-0.0949358
-0.0946088
-0.0942403
-0.0938048
-0.0932622
-0.092556
-0.0916114
-0.0903381
-0.0886379
-0.0864114
-0.0835692
-0.0800412
-0.075782
-0.0707761
-0.0650445
-0.0586453
-0.0516742
-0.0442578
-0.03655
-0.0287191
-0.0209398
-0.0133808
-0.00619835
0.000478492
0.00654486
0.0119219
0.0165572
0.0204277
0.0235357
0.0259066
0.0275834
0.0286234
0.029092
0.0290605
0.028601
0.027785
0.0266795
0.0253468
0.023842
0.0222135
0.0205025
0.0187439
0.0169651
0.0151888
0.0134304
0.0117025
0.0100112
0.00836202
0.00675457
0.00518948
0.00366206
0.00217017
0.00070818
-0.0941405
-0.0952385
-0.0960787
-0.0966911
-0.0970067
-0.0971228
-0.0971542
-0.0971635
-0.0971758
-0.0972025
-0.0972383
-0.0972766
-0.0973145
-0.0973509
-0.0973845
-0.0974134
-0.0974375
-0.0974559
-0.0974614
-0.0974506
-0.0974242
-0.0973841
-0.0973298
-0.0972593
-0.0971704
-0.0970613
-0.096931
-0.0967796
-0.096606
-0.0964076
-0.0961814
-0.0959243
-0.0956332
-0.0953055
-0.0949388
-0.0945315
-0.0940808
-0.093581
-0.0930206
-0.0923811
-0.0916347
-0.0907436
-0.0896565
-0.0883099
-0.0866313
-0.0845439
-0.0819733
-0.0788544
-0.0751373
-0.0707985
-0.065845
-0.0603162
-0.0542815
-0.0478395
-0.0411111
-0.0342349
-0.0273559
-0.0206187
-0.0141567
-0.00808944
-0.00251477
0.0024927
0.00688562
0.0106374
0.013745
0.0162214
0.0180978
0.0194147
0.0202242
0.0205806
0.0205454
0.0201779
0.0195402
0.0186864
0.0176699
0.0165324
0.0153153
0.0140473
0.012759
0.0114676
0.0101942
0.00894577
0.00773632
0.00656457
0.00544031
0.00435634
0.00332057
0.00232142
0.00136638
0.000439829
-0.116866
-0.101923
-0.0999905
-0.0985117
-0.0975944
-0.0971635
-0.0969865
-0.0969203
-0.0968945
-0.0968916
-0.0969226
-0.0969778
-0.097039
-0.0970954
-0.0971444
-0.0971851
-0.0972156
-0.0972327
-0.0972306
-0.0972059
-0.0971581
-0.0970871
-0.0969912
-0.0968678
-0.0967136
-0.0965261
-0.0963028
-0.0960415
-0.0957397
-0.0953949
-0.0950046
-0.0945653
-0.0940736
-0.0935262
-0.0929196
-0.0922503
-0.0915134
-0.0907014
-0.0898022
-0.0887972
-0.0876592
-0.086351
-0.0848291
-0.0830452
-0.0809468
-0.0784821
-0.0756035
-0.0722737
-0.068471
-0.0641948
-0.0594677
-0.0543363
-0.0488682
-0.0431512
-0.037288
-0.0313923
-0.0255794
-0.0199611
-0.0146361
-0.00969021
-0.00519137
-0.00118917
0.00229201
0.0052421
0.0076678
0.00958555
0.0110272
0.012029
0.0126371
0.0128962
0.012859
0.0125741
0.0120956
0.0114672
0.0107349
0.00992962
0.00908573
0.00822129
0.00736173
0.00651434
0.0056985
0.00491275
0.00417321
0.00347101
0.00282124
0.00220829
0.00164861
0.001121
0.000645271
0.000191943
-0.0843533
-0.090839
-0.0933496
-0.0941849
-0.0946215
-0.0950118
-0.0953717
-0.0956722
-0.0959308
-0.0961552
-0.096346
-0.0965058
-0.096638
-0.0967455
-0.0968301
-0.0968914
-0.0969265
-0.0969312
-0.0969006
-0.0968308
-0.0967189
-0.0965631
-0.0963616
-0.0961124
-0.0958131
-0.0954616
-0.0950558
-0.0945937
-0.0940731
-0.0934907
-0.0928422
-0.0921245
-0.0913348
-0.0904706
-0.0895291
-0.0885066
-0.0873982
-0.0861966
-0.084891
-0.0834661
-0.0819011
-0.0801704
-0.0782445
-0.0760914
-0.073679
-0.0709772
-0.0679612
-0.0646148
-0.0609339
-0.0569288
-0.0526257
-0.0480667
-0.0433073
-0.0384168
-0.033476
-0.0285732
-0.0237979
-0.0192362
-0.0149639
-0.0110423
-0.00751374
-0.00440489
-0.0017265
0.000520098
0.00234544
0.00376761
0.00481776
0.00553059
0.00594847
0.00611098
0.00606415
0.00584844
0.00550954
0.00508217
0.00460476
0.00410001
0.00359555
0.00310024
0.00263276
0.00219088
0.00178962
0.00141986
0.00109869
0.000810894
0.000576432
0.000371476
0.000221085
9.253e-05
1.98692e-05
-4.1181e-05
-0.0783166
-0.0861036
-0.0900928
-0.0915203
-0.0919514
-0.0922798
-0.0927652
-0.0933651
-0.0939656
-0.0944917
-0.0949226
-0.0952678
-0.0955456
-0.09577
-0.0959477
-0.0960781
-0.0961569
-0.0961777
-0.0961346
-0.0960222
-0.095837
-0.0955767
-0.0952401
-0.0948267
-0.094336
-0.0937679
-0.0931219
-0.092398
-0.0915954
-0.0907132
-0.0897503
-0.0887058
-0.0875789
-0.0863689
-0.0850744
-0.0836936
-0.0822232
-0.0806586
-0.0789927
-0.0772163
-0.0753168
-0.0732795
-0.0710867
-0.068719
-0.0661576
-0.0633861
-0.0603927
-0.0571723
-0.0537282
-0.0500743
-0.0462364
-0.0422525
-0.0381726
-0.0340548
-0.0299608
-0.0259554
-0.0221042
-0.0184714
-0.0151123
-0.01207
-0.00937274
-0.00703657
-0.00506344
-0.00344224
-0.00215314
-0.00117343
-0.000473511
-2.01322e-05
0.00022723
0.000308978
0.000268058
0.000138946
-4.52955e-05
-0.000261546
-0.000483273
-0.000694915
-0.000877286
-0.00102765
-0.0011362
-0.00121165
-0.00124759
-0.00125772
-0.00122828
-0.00117653
-0.00108166
-0.000970046
-0.000811073
-0.000643464
-0.000420818
-0.000200097
-0.0680505
-0.0752601
-0.080604
-0.084078
-0.0861994
-0.0876312
-0.0888223
-0.0899509
-0.0910287
-0.0920102
-0.0928582
-0.0935635
-0.0941368
-0.0945945
-0.0949498
-0.0952085
-0.0953706
-0.0954326
-0.0953901
-0.0952397
-0.0949789
-0.0946071
-0.0941251
-0.0935347
-0.0928383
-0.0920387
-0.0911387
-0.0901409
-0.0890481
-0.0878625
-0.086586
-0.0852202
-0.0837664
-0.0822256
-0.0805983
-0.0788844
-0.0770831
-0.0751927
-0.0732103
-0.071132
-0.0689526
-0.0666658
-0.0642646
-0.0617421
-0.0590909
-0.0563047
-0.0533795
-0.0503155
-0.0471184
-0.0438018
-0.0403885
-0.0369125
-0.0334187
-0.0299598
-0.0265908
-0.0233645
-0.0203267
-0.0175135
-0.0149529
-0.0126681
-0.010682
-0.00901196
-0.00765538
-0.00658268
-0.00575129
-0.00512568
-0.00468054
-0.00439324
-0.00423104
-0.00415174
-0.00411236
-0.00408508
-0.00405562
-0.00401984
-0.00397057
-0.00390239
-0.00380561
-0.00367892
-0.00351805
-0.00332955
-0.00311012
-0.00287019
-0.00260406
-0.00232584
-0.00202221
-0.00171275
-0.00137116
-0.00102836
-0.00063755
-0.000256966
-0.0627611
-0.0693784
-0.0748422
-0.0790455
-0.0821118
-0.084353
-0.0861116
-0.0876266
-0.0890061
-0.0902675
-0.091391
-0.0923564
-0.0931573
-0.0937993
-0.0942921
-0.0946433
-0.094856
-0.0949296
-0.0948615
-0.0946496
-0.0942929
-0.0937921
-0.0931499
-0.0923702
-0.0914583
-0.0904197
-0.0892603
-0.0879862
-0.0866032
-0.0851166
-0.083531
-0.0818505
-0.0800782
-0.0782169
-0.0762691
-0.0742367
-0.0721216
-0.0699256
-0.0676501
-0.0652965
-0.0628661
-0.0603606
-0.0577819
-0.0551325
-0.0524149
-0.0496316
-0.0467855
-0.0438812
-0.0409252
-0.0379275
-0.0349047
-0.0318832
-0.0289029
-0.0260168
-0.0232845
-0.0207575
-0.0184653
-0.016409
-0.01457
-0.0129377
-0.0115314
-0.0103858
-0.00950724
-0.00885102
-0.00833736
-0.00790509
-0.00754049
-0.00725297
-0.00703823
-0.00686487
-0.00669153
-0.00649066
-0.00625224
-0.00598263
-0.00569466
-0.00540008
-0.00510165
-0.00479887
-0.0044868
-0.00416465
-0.00382907
-0.00348318
-0.0031242
-0.00275775
-0.00237782
-0.00199237
-0.00158698
-0.00117505
-0.000725317
-0.000272772
-0.0581952
-0.0644561
-0.0699047
-0.0744434
-0.0780775
-0.0809401
-0.0832425
-0.0851858
-0.0869032
-0.0884536
-0.0898447
-0.091063
-0.092095
-0.0929354
-0.093586
-0.0940508
-0.0943332
-0.094434
-0.0943529
-0.0940897
-0.0936455
-0.0930231
-0.0922275
-0.0912653
-0.090144
-0.0888723
-0.0874594
-0.0859149
-0.084248
-0.0824674
-0.0805804
-0.0785937
-0.0765125
-0.0743417
-0.0720858
-0.0697491
-0.0673367
-0.0648539
-0.062307
-0.059703
-0.0570496
-0.054355
-0.0516287
-0.0488814
-0.0461247
-0.0433703
-0.0406295
-0.0379117
-0.0352236
-0.0325708
-0.0299589
-0.0273994
-0.0249161
-0.0225573
-0.0203907
-0.01848
-0.0168507
-0.0154613
-0.0142291
-0.0131006
-0.0120899
-0.011255
-0.0106301
-0.0101796
-0.00980347
-0.00941101
-0.00898351
-0.00855979
-0.00817575
-0.00783268
-0.00751113
-0.00720102
-0.00688685
-0.00655682
-0.00621003
-0.00585261
-0.00548926
-0.00512234
-0.00475177
-0.00437823
-0.00400067
-0.00361977
-0.00323382
-0.00284423
-0.00244804
-0.00204666
-0.00163265
-0.0012068
-0.000750248
-0.000274443
-0.0545748
-0.0606269
-0.0660491
-0.0707632
-0.0747449
-0.0780479
-0.0807943
-0.0831303
-0.0851775
-0.0870083
-0.0886488
-0.0900969
-0.0913394
-0.0923646
-0.0931662
-0.0937423
-0.0940929
-0.0942183
-0.0941188
-0.093796
-0.0932539
-0.0924991
-0.09154
-0.0903866
-0.0890495
-0.0875405
-0.085872
-0.0840568
-0.0821073
-0.0800354
-0.0778518
-0.0755658
-0.0731854
-0.070718
-0.0681702
-0.0655495
-0.0628639
-0.0601234
-0.0573393
-0.0545253
-0.0516959
-0.0488664
-0.0460517
-0.0432675
-0.040533
-0.0378696
-0.0352967
-0.0328255
-0.0304597
-0.0281969
-0.0260308
-0.0239537
-0.0219621
-0.0200836
-0.0183761
-0.0169168
-0.0157521
-0.0148152
-0.0139873
-0.0131892
-0.0124194
-0.0117101
-0.0110898
-0.0105877
-0.0101677
-0.00977091
-0.00937815
-0.00900738
-0.008637
-0.00825032
-0.00784876
-0.00743455
-0.00701705
-0.00660901
-0.00621653
-0.0058368
-0.00546764
-0.00510445
-0.0047418
-0.00437604
-0.00400495
-0.00362808
-0.00324446
-0.00285465
-0.00245781
-0.00205397
-0.00163912
-0.00121003
-0.000756505
-0.000277164
-0.0516635
-0.057606
-0.0630132
-0.0678193
-0.0720035
-0.0755986
-0.0786814
-0.081351
-0.0837016
-0.0858001
-0.0876798
-0.0893463
-0.0907895
-0.091994
-0.0929464
-0.0936378
-0.0940628
-0.0942185
-0.0941043
-0.0937222
-0.0930791
-0.0921867
-0.0910592
-0.0897114
-0.0881582
-0.0864151
-0.084498
-0.0824232
-0.0802068
-0.0778642
-0.0754093
-0.0728548
-0.0702115
-0.0674895
-0.0646986
-0.0618488
-0.0589518
-0.0560217
-0.0530753
-0.0501332
-0.0472187
-0.0443556
-0.0415633
-0.0388537
-0.0362472
-0.0337702
-0.0314421
-0.029266
-0.0272319
-0.0253287
-0.0235415
-0.0218584
-0.020287
-0.0188315
-0.0175008
-0.0163382
-0.0153481
-0.0145085
-0.0137787
-0.013131
-0.0125719
-0.0121098
-0.0116839
-0.0111936
-0.0106147
-0.0100018
-0.00943432
-0.00893146
-0.00849679
-0.00811071
-0.00774179
-0.00737215
-0.00699694
-0.006617
-0.00623581
-0.00585963
-0.00548797
-0.00511862
-0.00474912
-0.00437763
-0.00400232
-0.00362179
-0.00323544
-0.0028432
-0.00244445
-0.00203828
-0.00162187
-0.00119242
-0.000745786
-0.000270904
-0.0492697
-0.0551832
-0.0605885
-0.0654409
-0.0697412
-0.073528
-0.0768615
-0.0798096
-0.0824365
-0.0847931
-0.0869092
-0.0887928
-0.0904359
-0.091821
-0.0929292
-0.0937442
-0.0942544
-0.0944524
-0.0943354
-0.0939056
-0.0931711
-0.0921488
-0.0908596
-0.0893255
-0.0875689
-0.085612
-0.0834767
-0.0811839
-0.0787536
-0.0762044
-0.0735525
-0.0708126
-0.0679976
-0.0651191
-0.0621886
-0.059218
-0.0562208
-0.0532133
-0.0502151
-0.0472509
-0.044349
-0.0415414
-0.0388562
-0.0363087
-0.0339166
-0.0316946
-0.0296419
-0.0277414
-0.0259599
-0.0242607
-0.0226345
-0.0211097
-0.0197415
-0.0185811
-0.0176586
-0.0169268
-0.0162103
-0.0153879
-0.0144511
-0.0134916
-0.0126534
-0.0119714
-0.0114204
-0.0109322
-0.0104503
-0.00996199
-0.00948091
-0.00902624
-0.00860553
-0.00820447
-0.00781005
-0.00741619
-0.00702311
-0.00663405
-0.0062504
-0.00587165
-0.00549702
-0.00512468
-0.0047524
-0.00437822
-0.00400057
-0.00361823
-0.00323028
-0.00283609
-0.00243483
-0.00202515
-0.00160508
-0.00117428
-0.000732494
-0.000262712
-0.0477358
-0.0536117
-0.0589795
-0.0638305
-0.0681889
-0.0720959
-0.0756023
-0.0787585
-0.0816071
-0.0841829
-0.0865068
-0.088583
-0.0904019
-0.0919451
-0.0931907
-0.094117
-0.0947064
-0.094947
-0.0948341
-0.0943707
-0.0935676
-0.0924406
-0.0910132
-0.0893154
-0.0873801
-0.0852405
-0.0829277
-0.08047
-0.0778921
-0.0752151
-0.0724567
-0.0696317
-0.0667524
-0.0638298
-0.0608741
-0.0578961
-0.054908
-0.0519247
-0.0489648
-0.0460524
-0.0432166
-0.040494
-0.0379236
-0.0355487
-0.0333973
-0.0314724
-0.0297449
-0.0281587
-0.0266455
-0.0251235
-0.0235547
-0.0219519
-0.0203831
-0.0189458
-0.017726
-0.0167119
-0.0158373
-0.015023
-0.0142302
-0.0134697
-0.0127724
-0.0121619
-0.0116187
-0.0110956
-0.0105706
-0.0100474
-0.00954276
-0.00907075
-0.00863079
-0.00821596
-0.00781609
-0.00742362
-0.00703488
-0.00664902
-0.00626656
-0.00588772
-0.00551182
-0.00513747
-0.00476296
-0.00438666
-0.00400709
-0.00362298
-0.00323328
-0.00283704
-0.00243319
-0.00202032
-0.0015972
-0.00116486
-0.000724321
-0.000258403
-0.0468203
-0.0527125
-0.0580791
-0.0629466
-0.0673547
-0.0713471
-0.0749685
-0.0782636
-0.0812708
-0.0840138
-0.0865011
-0.0887292
-0.0906844
-0.0923469
-0.0936936
-0.0947023
-0.0953544
-0.0956377
-0.0955482
-0.0950909
-0.0942799
-0.0931371
-0.0916908
-0.089973
-0.0880179
-0.0858594
-0.08353
-0.0810591
-0.0784727
-0.0757925
-0.0730369
-0.0702208
-0.0673568
-0.0644554
-0.0615264
-0.0585796
-0.0556255
-0.0526771
-0.0497502
-0.0468647
-0.0440453
-0.0413211
-0.0387247
-0.036286
-0.0340263
-0.0319512
-0.030049
-0.0282982
-0.0266363
-0.0250084
-0.0234047
-0.0218399
-0.0203702
-0.0190621
-0.0179428
-0.0169914
-0.0161209
-0.0152659
-0.0144133
-0.0135928
-0.0128517
-0.012203
-0.011625
-0.0110834
-0.0105581
-0.0100472
-0.00956003
-0.00909952
-0.0086649
-0.00824901
-0.00784492
-0.00744817
-0.00705687
-0.00667049
-0.00628871
-0.00591085
-0.00553578
-0.00516199
-0.00478784
-0.00441176
-0.00403231
-0.00364824
-0.00325839
-0.00286165
-0.0024568
-0.00204242
-0.00161722
-0.00118114
-0.000734113
-0.000263021
)
;

boundaryField
{
    fixedWalls
    {
        type            zeroGradient;
    }
    inflowWall
    {
        type            zeroGradient;
    }
    outflowWall
    {
        type            fixedValue;
        value           uniform 0;
    }
    frontAndBack
    {
        type            empty;
    }
}


// ************************************************************************* //
