/*--------------------------------*- C++ -*----------------------------------*\
| =========                 |                                                 |
| \\      /  F ield         | OpenFOAM: The Open Source CFD Toolbox           |
|  \\    /   O peration     | Version:  2306                                  |
|   \\  /    A nd           | Website:  www.openfoam.com                      |
|    \\/     M anipulation  |                                                 |
\*---------------------------------------------------------------------------*/
FoamFile
{
    version     2.0;
    format      ascii;
    arch        "LSB;label=32;scalar=64";
    class       volScalarField;
    location    "4.47";
    object      p;
}
// * * * * * * * * * * * * * * * * * * * * * * * * * * * * * * * * * * * * * //

dimensions      [0 2 -2 0 0 0 0];

internalField   nonuniform List<scalar> 
1900
(
0.0561718
0.0319502
0.0115577
-0.00378355
-0.0148045
-0.0253612
-0.0358045
-0.0479716
-0.0605295
-0.0745882
0.0269109
0.0187124
0.00739618
-0.00415706
-0.0151825
-0.0253715
-0.0358063
-0.0463215
-0.0578203
-0.0688756
0.0178177
0.0133271
0.00581151
-0.00355672
-0.0136404
-0.0236194
-0.0333984
-0.0429506
-0.0523773
-0.0614622
0.0121163
0.00904297
0.00339327
-0.0042549
-0.0131062
-0.0223461
-0.0315366
-0.0404499
-0.0490422
-0.0572011
0.00989166
0.00735633
0.00261777
-0.00403011
-0.0120086
-0.0206115
-0.0292857
-0.0377083
-0.0457298
-0.0532614
0.0105254
0.00804469
0.00343402
-0.00303092
-0.0107692
-0.0190726
-0.027382
-0.0353804
-0.0429437
-0.0500429
0.0139805
0.0110345
0.00575347
-0.00132951
-0.00938949
-0.017676
-0.0257234
-0.0333542
-0.0405603
-0.0473766
0.0206792
0.0163837
0.00948608
0.00101741
-0.00780223
-0.0162262
-0.0240587
-0.0313935
-0.0383801
-0.0450804
0.0308197
0.0227206
0.0122848
0.00182422
-0.00748222
-0.0155931
-0.0229609
-0.0300082
-0.0368986
-0.0435919
0.0596697
0.0369974
0.0172909
0.00322864
-0.00642801
-0.0141222
-0.02135
-0.0285665
-0.0357216
-0.04261
-0.0977913
-0.0978247
-0.0978696
-0.0979238
-0.0979841
-0.0980502
-0.0981217
-0.0981975
-0.0982763
-0.0983565
-0.0984364
-0.0985143
-0.0985886
-0.0986574
-0.0987192
-0.0987723
-0.0988151
-0.0988463
-0.0988644
-0.0988684
-0.0988572
-0.0988299
-0.0987859
-0.0987245
-0.0986452
-0.0985479
-0.0984321
-0.0982977
-0.0981446
-0.0979726
-0.0977814
-0.097571
-0.0973411
-0.0970913
-0.0968215
-0.0965307
-0.0962175
-0.0958789
-0.0955095
-0.0951008
-0.0946396
-0.094107
-0.0934783
-0.0927227
-0.0918042
-0.0906833
-0.0893167
-0.0876573
-0.0856514
-0.0832381
-0.0803505
-0.076917
-0.072867
-0.0681398
-0.0626996
-0.0565343
-0.0496721
-0.0421752
-0.0341292
-0.0256526
-0.0168905
-0.00801393
0.000808592
0.00940156
0.0175971
0.0252438
0.0322066
0.0383816
0.0436866
0.04808
0.0515329
0.0540576
0.0556707
0.0564264
0.0563725
0.0555891
0.0541374
0.0521073
0.0495572
0.046576
0.0432092
0.0395366
0.0355824
0.0314164
0.0270348
0.0225039
0.017782
0.0129465
0.00788994
0.00275597
-0.0977868
-0.0978185
-0.0978455
-0.0978871
-0.0979383
-0.0979978
-0.098064
-0.0981353
-0.0982102
-0.098287
-0.098364
-0.0984396
-0.0985119
-0.0985792
-0.0986398
-0.0986919
-0.0987341
-0.0987648
-0.0987826
-0.0987863
-0.0987748
-0.0987472
-0.0987026
-0.0986404
-0.0985601
-0.0984611
-0.0983432
-0.0982061
-0.0980495
-0.0978732
-0.0976768
-0.0974598
-0.0972219
-0.0969621
-0.0966797
-0.0963733
-0.0960409
-0.0956795
-0.0952842
-0.0948475
-0.0943588
-0.0938038
-0.0931632
-0.0924128
-0.091523
-0.0904583
-0.0891775
-0.0876324
-0.085764
-0.0835015
-0.0807642
-0.077466
-0.0735229
-0.0688824
-0.0635415
-0.0574808
-0.050704
-0.0432597
-0.0352405
-0.0267723
-0.017999
-0.00909915
-0.000246032
0.00838192
0.0166076
0.0242869
0.0312796
0.0374753
0.0427958
0.0472059
0.0506728
0.0532116
0.0548361
0.0556062
0.0555651
0.0548001
0.053366
0.0513627
0.0488395
0.0458956
0.0425627
0.0389362
0.0350223
0.0309115
0.0265776
0.0221074
0.0174358
0.0126612
0.00768464
0.00264792
-0.0976693
-0.0977505
-0.0977961
-0.0978496
-0.0979058
-0.0979673
-0.0980352
-0.0981083
-0.0981855
-0.0982649
-0.098345
-0.0984238
-0.0984995
-0.0985703
-0.0986344
-0.0986899
-0.0987353
-0.098769
-0.0987896
-0.0987955
-0.0987858
-0.0987595
-0.0987157
-0.0986538
-0.0985732
-0.0984735
-0.0983546
-0.0982162
-0.0980583
-0.0978808
-0.0976836
-0.0974664
-0.0972285
-0.0969688
-0.0966864
-0.0963797
-0.0960463
-0.0956829
-0.0952849
-0.0948459
-0.0943581
-0.0938117
-0.0931938
-0.0924874
-0.0916692
-0.0907065
-0.0895553
-0.0881613
-0.086456
-0.0843542
-0.0817661
-0.0786189
-0.0748244
-0.0703034
-0.0650013
-0.0589338
-0.0521309
-0.0446602
-0.0366148
-0.0281247
-0.0193121
-0.0104102
-0.00156733
0.00704823
0.0152572
0.0229164
0.0298799
0.036051
0.0413426
0.0457228
0.0491598
0.0516737
0.0532779
0.0540374
0.0539941
0.0532403
0.0518276
0.04986
0.0473828
0.0444996
0.0412387
0.037698
0.033882
0.0298808
0.0256707
0.0213352
0.0168216
0.0122149
0.00743961
0.00259302
-0.0977513
-0.097825
-0.0978293
-0.0978552
-0.0979009
-0.0979631
-0.0980365
-0.0981172
-0.0982027
-0.0982907
-0.0983792
-0.098466
-0.0985491
-0.0986266
-0.0986965
-0.0987571
-0.0988068
-0.0988438
-0.0988668
-0.0988744
-0.0988655
-0.0988392
-0.0987947
-0.0987312
-0.0986484
-0.0985459
-0.0984235
-0.0982813
-0.0981195
-0.0979382
-0.0977374
-0.0975171
-0.0972766
-0.0970146
-0.0967296
-0.0964202
-0.0960843
-0.0957194
-0.0953223
-0.0948884
-0.0944113
-0.0938836
-0.0932981
-0.0926424
-0.0918951
-0.0910223
-0.0899735
-0.0886897
-0.0871026
-0.0851204
-0.0826369
-0.0795555
-0.0758039
-0.0713188
-0.0660578
-0.0600287
-0.0532613
-0.0458291
-0.0378321
-0.0294006
-0.0206874
-0.0118802
-0.00315546
0.00532097
0.0133762
0.0208691
0.0276631
0.0336676
0.0388012
0.043034
0.0463408
0.0487455
0.0502665
0.0509703
0.0509025
0.0501545
0.0487803
0.0468801
0.044502
0.0417438
0.0386376
0.0352729
0.0316605
0.0278796
0.0239179
0.0198457
0.0156278
0.0113296
0.0068939
0.00238644
-0.097425
-0.0976304
-0.0977213
-0.0978254
-0.0979242
-0.0980176
-0.0981102
-0.0982055
-0.0983031
-0.0984014
-0.0984986
-0.0985926
-0.0986817
-0.0987638
-0.0988372
-0.0989001
-0.098951
-0.0989883
-0.0990104
-0.0990162
-0.0990045
-0.0989744
-0.0989253
-0.0988567
-0.0987683
-0.0986599
-0.0985315
-0.0983835
-0.0982165
-0.0980307
-0.0978266
-0.0976041
-0.0973627
-0.0971005
-0.0968151
-0.0965058
-0.0961712
-0.0958088
-0.0954161
-0.0949897
-0.0945239
-0.0940115
-0.0934503
-0.0928282
-0.0921214
-0.0912969
-0.0902932
-0.0890452
-0.0874715
-0.0854945
-0.0830127
-0.0799368
-0.076187
-0.071709
-0.066471
-0.0604831
-0.0537845
-0.0464531
-0.038594
-0.0303426
-0.0218538
-0.0133008
-0.00486145
0.00330011
0.0110235
0.018174
0.0246292
0.0303053
0.0351337
0.039089
0.0421571
0.0443649
0.0457396
0.0463467
0.0462378
0.0454988
0.0441885
0.042398
0.04018
0.0376206
0.0347581
0.0316678
0.0283696
0.024927
0.0213406
0.0176639
0.0138786
0.0100313
0.00608795
0.00209631
-0.0982567
-0.0982794
-0.0981783
-0.0981334
-0.0981441
-0.098202
-0.09829
-0.098391
-0.0984942
-0.0985961
-0.0986947
-0.0987882
-0.098875
-0.0989535
-0.0990221
-0.0990794
-0.0991239
-0.0991544
-0.0991694
-0.0991676
-0.0991481
-0.0991101
-0.0990533
-0.0989773
-0.0988819
-0.0987668
-0.0986322
-0.0984788
-0.0983072
-0.0981178
-0.0979112
-0.0976872
-0.0974451
-0.0971826
-0.0968961
-0.0965896
-0.0962597
-0.0959028
-0.0955163
-0.0950972
-0.0946403
-0.0941362
-0.0935708
-0.0929349
-0.0922054
-0.0913442
-0.0902948
-0.0889919
-0.0873563
-0.0853063
-0.0827502
-0.0796063
-0.0758044
-0.0713017
-0.0660783
-0.0601508
-0.0535669
-0.0464101
-0.038791
-0.0308462
-0.0227288
-0.014603
-0.00663443
0.00102131
0.00822084
0.0148415
0.0207796
0.025962
0.0303377
0.0338892
0.0366163
0.0385495
0.0397262
0.0402089
0.0400556
0.0393438
0.0381358
0.0365105
0.0345237
0.0322468
0.0297222
0.0270098
0.0241357
0.0211477
0.0180558
0.0148971
0.0116676
0.00839786
0.00507336
0.00172507
-0.0969301
-0.0975768
-0.0977797
-0.0980364
-0.0982519
-0.0984151
-0.0985374
-0.0986385
-0.0987314
-0.0988198
-0.0989039
-0.0989825
-0.0990543
-0.0991181
-0.0991725
-0.0992163
-0.0992484
-0.0992676
-0.0992722
-0.0992609
-0.0992327
-0.0991868
-0.0991227
-0.0990401
-0.0989386
-0.0988179
-0.0986782
-0.0985213
-0.0983475
-0.0981567
-0.0979492
-0.0977251
-0.0974835
-0.0972224
-0.0969367
-0.0966207
-0.0962786
-0.0959079
-0.0955036
-0.0950601
-0.0945703
-0.094025
-0.093411
-0.0927113
-0.0918979
-0.0909318
-0.0897579
-0.0883122
-0.0865203
-0.0843068
-0.0815941
-0.0783152
-0.0744152
-0.0698644
-0.064657
-0.0588205
-0.0524113
-0.0455193
-0.038257
-0.0307599
-0.0231739
-0.0156528
-0.00834397
-0.00138565
0.00510227
0.0110164
0.0162761
0.0208246
0.0246308
0.0276878
0.0300098
0.0316301
0.0325941
0.0329596
0.032787
0.0321432
0.0310906
0.0296939
0.0280085
0.0260902
0.0239824
0.0217291
0.0193604
0.0169084
0.0143904
0.0118287
0.00922993
0.00661026
0.00397006
0.00132627
-0.101643
-0.100263
-0.0996348
-0.0992014
-0.0989749
-0.0988857
-0.0988739
-0.0988985
-0.0989375
-0.0989833
-0.0990328
-0.0990826
-0.0991306
-0.099175
-0.0992138
-0.099245
-0.0992671
-0.0992774
-0.0992733
-0.0992543
-0.0992198
-0.0991693
-0.0991022
-0.0990182
-0.098916
-0.0987943
-0.0986516
-0.0984875
-0.0983049
-0.0981042
-0.0978842
-0.0976437
-0.0973806
-0.0970922
-0.0967749
-0.0964255
-0.0960418
-0.0956199
-0.0951536
-0.0946356
-0.0940564
-0.0934042
-0.0926625
-0.0918102
-0.0908175
-0.0896458
-0.0882447
-0.0865566
-0.0845171
-0.0820625
-0.0791322
-0.0756778
-0.0716642
-0.0670784
-0.0619298
-0.0562571
-0.0501239
-0.0436217
-0.0368598
-0.0299667
-0.0230751
-0.0163221
-0.00983434
-0.00372733
0.00190776
0.00699253
0.0114728
0.0153112
0.0184964
0.0210317
0.0229421
0.0242609
0.0250365
0.0253187
0.0251663
0.0246337
0.0237801
0.0226556
0.0213128
0.0197925
0.0181368
0.0163754
0.0145398
0.0126487
0.0107244
0.00877642
0.0068198
0.00485755
0.00289992
0.00094712
-0.0958009
-0.096888
-0.0977255
-0.0983375
-0.0986544
-0.0987731
-0.0988077
-0.0988214
-0.0988373
-0.0988675
-0.0989068
-0.0989476
-0.0989883
-0.0990272
-0.0990624
-0.0990919
-0.0991145
-0.0991301
-0.0991341
-0.0991207
-0.099088
-0.0990358
-0.0989636
-0.0988714
-0.0987587
-0.0986231
-0.0984624
-0.0982759
-0.0980639
-0.0978259
-0.0975606
-0.0972659
-0.0969392
-0.0965769
-0.0961749
-0.0957282
-0.095232
-0.0946807
-0.0940673
-0.0933829
-0.0926162
-0.0917532
-0.0907762
-0.089664
-0.0883887
-0.0869159
-0.0852039
-0.0832062
-0.0808734
-0.0781581
-0.0750174
-0.0714183
-0.0673433
-0.0627969
-0.0578038
-0.052413
-0.0466919
-0.0407294
-0.0346258
-0.0284941
-0.0224456
-0.0165925
-0.0110325
-0.00585588
-0.00112987
0.00309164
0.0067796
0.0099148
0.0125011
0.0145479
0.0160855
0.0171437
0.0177694
0.0180026
0.0178976
0.0174964
0.0168539
0.0160071
0.0150054
0.013876
0.0126598
0.0113728
0.0100485
0.00869194
0.0073308
0.00596132
0.0046075
0.00325856
0.00193647
0.000622957
-0.118476
-0.103558
-0.101632
-0.100155
-0.0992404
-0.0988119
-0.0986373
-0.0985753
-0.0985567
-0.0985604
-0.0985993
-0.0986614
-0.0987264
-0.0987871
-0.0988419
-0.0988893
-0.0989264
-0.0989496
-0.0989539
-0.0989342
-0.0988874
-0.0988124
-0.0987093
-0.0985788
-0.0984197
-0.0982288
-0.0980032
-0.0977404
-0.0974388
-0.097097
-0.0967132
-0.0962855
-0.095811
-0.095286
-0.094706
-0.0940659
-0.0933603
-0.0925831
-0.091727
-0.0907833
-0.0897412
-0.0885873
-0.0873044
-0.085871
-0.0842621
-0.0824502
-0.0804044
-0.0780925
-0.0754816
-0.0725427
-0.0692526
-0.0655987
-0.0615813
-0.0572176
-0.0525401
-0.0475984
-0.0424547
-0.0371855
-0.0318746
-0.0266132
-0.0214888
-0.0165869
-0.0119789
-0.00773002
-0.0038865
-0.00048249
0.00247086
0.00496654
0.00701615
0.00863128
0.00984284
0.0106768
0.0111768
0.0113746
0.0113195
0.0110434
0.0105966
0.0100055
0.00931629
0.00854478
0.0077309
0.00687793
0.00602089
0.00515121
0.00430205
0.00345437
0.00264294
0.00183932
0.00108177
0.000328361
-0.0860384
-0.0924928
-0.0950004
-0.0958441
-0.0962923
-0.0966948
-0.0970671
-0.09738
-0.0976508
-0.0978866
-0.0980897
-0.0982624
-0.0984079
-0.0985299
-0.0986309
-0.0987103
-0.098765
-0.0987902
-0.0987809
-0.0987325
-0.0986418
-0.098507
-0.0983274
-0.0981029
-0.0978324
-0.0975143
-0.0971464
-0.0967268
-0.0962542
-0.0957273
-0.0951442
-0.0945016
-0.093796
-0.0930241
-0.0921821
-0.091266
-0.0902709
-0.0891915
-0.0880212
-0.0867528
-0.085377
-0.0838831
-0.0822578
-0.0804861
-0.0785511
-0.0764349
-0.0741185
-0.0715829
-0.0688106
-0.0657875
-0.0625057
-0.058965
-0.0551751
-0.0511566
-0.0469415
-0.0425725
-0.0381007
-0.033587
-0.0290976
-0.0247032
-0.0204713
-0.0164666
-0.0127424
-0.00934331
-0.00629645
-0.00362007
-0.00131592
0.000616885
0.00219304
0.00342614
0.00434626
0.00497811
0.00536223
0.00552626
0.00551409
0.00535069
0.00508011
0.00472045
0.00431319
0.00386533
0.00341426
0.00295292
0.0025161
0.00208204
0.00168804
0.00129856
0.000959774
0.000620705
0.000339806
4.4846e-05
-0.0801161
-0.0878915
-0.0918728
-0.0932975
-0.0937326
-0.094071
-0.0945704
-0.0951878
-0.0958098
-0.0963618
-0.0968207
-0.0971948
-0.0975021
-0.0977573
-0.0979673
-0.0981326
-0.0982488
-0.09831
-0.09831
-0.098244
-0.0981084
-0.0979016
-0.097623
-0.097273
-0.0968523
-0.0963613
-0.0958004
-0.0951696
-0.0944691
-0.0936987
-0.0928578
-0.0919453
-0.0909594
-0.0898984
-0.0887601
-0.0875417
-0.0862402
-0.0848516
-0.0833716
-0.0817949
-0.0801158
-0.0783272
-0.0764216
-0.0743903
-0.0722239
-0.0699127
-0.0674464
-0.0648151
-0.0620108
-0.0590288
-0.0558692
-0.0525376
-0.0490467
-0.0454175
-0.0416793
-0.0378703
-0.0340358
-0.0302252
-0.0264894
-0.02288
-0.0194468
-0.0162359
-0.0132845
-0.0106214
-0.00826379
-0.00622064
-0.00448775
-0.00305387
-0.00189904
-0.00100485
-0.000342995
0.000111793
0.000396205
0.000538159
0.000576033
0.000531203
0.000437229
0.000305112
0.000165615
2.01417e-05
-0.00010165
-0.000212043
-0.000281744
-0.000339729
-0.000350546
-0.000360959
-0.000317908
-0.000292305
-0.000205286
-0.000164664
-0.0699228
-0.0771099
-0.0824533
-0.0859442
-0.0880903
-0.0895489
-0.0907684
-0.0919278
-0.0930397
-0.0940587
-0.094947
-0.0956946
-0.096312
-0.096816
-0.0972204
-0.0975315
-0.0977501
-0.097873
-0.0978966
-0.0978178
-0.0976348
-0.0973477
-0.0969579
-0.0964681
-0.0958812
-0.0952007
-0.0944298
-0.0935715
-0.0926284
-0.0916026
-0.0904958
-0.0893092
-0.0880431
-0.0866972
-0.0852709
-0.0837628
-0.0821712
-0.0804941
-0.078729
-0.0768734
-0.0749243
-0.0728788
-0.0707338
-0.0684861
-0.0661327
-0.0636708
-0.0610981
-0.0584131
-0.0556157
-0.0527074
-0.0496926
-0.0465792
-0.0433798
-0.0401135
-0.0368068
-0.0334941
-0.0302165
-0.0270176
-0.0239404
-0.0210234
-0.0182983
-0.015789
-0.0135135
-0.0114868
-0.00972135
-0.00822354
-0.00698479
-0.0059814
-0.00518104
-0.0045559
-0.0040803
-0.00373307
-0.00348621
-0.0033124
-0.00317958
-0.00306896
-0.00296167
-0.00285505
-0.00273613
-0.00260795
-0.00245463
-0.00228638
-0.00208444
-0.00187162
-0.00162022
-0.00137092
-0.00107741
-0.000812202
-0.000490992
-0.000246502
-0.0647149
-0.0713391
-0.0768148
-0.0810374
-0.0841307
-0.0864046
-0.0882003
-0.0897563
-0.0911806
-0.0924908
-0.0936668
-0.094688
-0.0955481
-0.0962528
-0.0968121
-0.0972343
-0.0975231
-0.0976787
-0.0976992
-0.0975833
-0.0973308
-0.0969436
-0.0964253
-0.0957807
-0.0950155
-0.0941358
-0.0931474
-0.0920561
-0.090867
-0.089585
-0.0882142
-0.0867575
-0.085217
-0.0835941
-0.0818892
-0.0801023
-0.0782332
-0.0762815
-0.0742469
-0.0721293
-0.069929
-0.0676466
-0.0652834
-0.0628412
-0.0603229
-0.0577321
-0.0550734
-0.0523525
-0.0495755
-0.0467495
-0.0438819
-0.0409816
-0.0380599
-0.0351318
-0.0322189
-0.0293507
-0.0265656
-0.0239072
-0.0214176
-0.0191273
-0.0170488
-0.0151768
-0.0134987
-0.0120109
-0.0107247
-0.00965312
-0.0087898
-0.00810196
-0.00753905
-0.00705909
-0.00664196
-0.00628334
-0.00597593
-0.00570391
-0.00544334
-0.00517596
-0.00488869
-0.00458147
-0.0042554
-0.00392004
-0.00357531
-0.00322871
-0.00287217
-0.00251461
-0.00214084
-0.00177051
-0.00137647
-0.00100479
-0.000594938
-0.00025927
-0.0602198
-0.0664976
-0.0719667
-0.0765318
-0.0802
-0.0831046
-0.0854557
-0.0874528
-0.0892285
-0.0908413
-0.0922989
-0.0935877
-0.0946943
-0.0956136
-0.0963479
-0.096902
-0.0972801
-0.0974837
-0.0975133
-0.0973694
-0.0970543
-0.0965724
-0.0959302
-0.0951354
-0.0941967
-0.0931224
-0.0919212
-0.0906015
-0.0891714
-0.0876388
-0.0860101
-0.0842906
-0.0824843
-0.0805938
-0.0786211
-0.0765673
-0.0744337
-0.0722216
-0.0699328
-0.06757
-0.0651366
-0.0626372
-0.0600771
-0.0574631
-0.0548031
-0.0521067
-0.049385
-0.0466505
-0.0439163
-0.0411948
-0.0384964
-0.0358303
-0.0332049
-0.0306296
-0.0281164
-0.025683
-0.0233589
-0.0211879
-0.0192167
-0.0174762
-0.015962
-0.0146321
-0.0134358
-0.0123483
-0.0113822
-0.010562
-0.00989568
-0.00935714
-0.00888805
-0.0084316
-0.00796608
-0.00750218
-0.00705743
-0.00664104
-0.00624915
-0.00587269
-0.00550026
-0.0051234
-0.00473652
-0.00434131
-0.00393888
-0.00353415
-0.00312543
-0.00271657
-0.00230168
-0.001888
-0.001465
-0.00105338
-0.000625274
-0.000251676
-0.0566587
-0.0627365
-0.0681902
-0.0729421
-0.0769692
-0.0803253
-0.0831318
-0.0855343
-0.0876532
-0.0895601
-0.0912812
-0.0928139
-0.0941454
-0.0952644
-0.0961655
-0.0968477
-0.0973122
-0.0975602
-0.0975928
-0.0974122
-0.0970231
-0.0964335
-0.0956543
-0.0946978
-0.0935759
-0.0922998
-0.0908808
-0.0893298
-0.0876578
-0.0858751
-0.0839907
-0.0820124
-0.0799462
-0.0777967
-0.0755671
-0.0732603
-0.0708789
-0.0684262
-0.0659062
-0.0633243
-0.0606877
-0.0580052
-0.0552871
-0.0525447
-0.0497905
-0.0470381
-0.0443037
-0.0416068
-0.0389678
-0.036403
-0.0339234
-0.0315344
-0.0292394
-0.0270407
-0.0249396
-0.0229353
-0.0210361
-0.019277
-0.0177054
-0.0163609
-0.0152366
-0.0142682
-0.0133837
-0.0125447
-0.0117533
-0.0110228
-0.0103649
-0.00979489
-0.00929295
-0.0088196
-0.00835576
-0.00790722
-0.00746307
-0.00701798
-0.00657114
-0.00612296
-0.00567497
-0.00523134
-0.00479575
-0.00436994
-0.00395162
-0.00353973
-0.00313098
-0.00272347
-0.00231255
-0.00189908
-0.00147931
-0.00106082
-0.000637801
-0.000254986
-0.0538014
-0.0597793
-0.065229
-0.0700847
-0.0743259
-0.0779853
-0.0811396
-0.0838877
-0.0863229
-0.0885111
-0.0904852
-0.0922503
-0.0937961
-0.0951079
-0.0961736
-0.0969857
-0.0975403
-0.0978361
-0.0978736
-0.0976558
-0.0971894
-0.096486
-0.0955624
-0.0944375
-0.093128
-0.0916489
-0.0900141
-0.0882375
-0.0863328
-0.084313
-0.0821899
-0.0799737
-0.0776725
-0.075293
-0.0728404
-0.0703192
-0.0677339
-0.0650896
-0.0623928
-0.0596515
-0.0568765
-0.0540811
-0.051281
-0.0484932
-0.0457339
-0.0430168
-0.0403585
-0.0377829
-0.0353131
-0.0329639
-0.03074
-0.0286382
-0.0266516
-0.0247775
-0.0230145
-0.0213622
-0.0198175
-0.0183884
-0.017103
-0.0159735
-0.0149856
-0.0141136
-0.013329
-0.0126096
-0.0119521
-0.0113654
-0.0108168
-0.0102546
-0.00965863
-0.009046
-0.00845557
-0.00790328
-0.00739554
-0.00693142
-0.00649578
-0.0060727
-0.00565261
-0.00523202
-0.00481072
-0.00439026
-0.00397278
-0.00355885
-0.00314689
-0.00273548
-0.00232239
-0.0019068
-0.00148712
-0.00106723
-0.000653047
-0.000251531
-0.0514552
-0.0574133
-0.0628711
-0.0677845
-0.0721537
-0.0760167
-0.0794337
-0.0824722
-0.085196
-0.0876552
-0.0898788
-0.0918742
-0.0936323
-0.0951364
-0.0963689
-0.0973153
-0.0979656
-0.0983148
-0.0983624
-0.0981125
-0.0975738
-0.0967611
-0.0956968
-0.0944067
-0.0929144
-0.0912414
-0.0894077
-0.0874316
-0.0853303
-0.0831194
-0.0808124
-0.0784209
-0.0759541
-0.0734197
-0.0708241
-0.0681728
-0.0654717
-0.062727
-0.0599466
-0.0571402
-0.0543202
-0.0515024
-0.0487057
-0.0459516
-0.0432608
-0.0406475
-0.0381336
-0.03574
-0.0334797
-0.0313542
-0.0293556
-0.02747
-0.0256795
-0.0239743
-0.022365
-0.0208789
-0.0195498
-0.0183959
-0.0174054
-0.0165302
-0.0156609
-0.0147469
-0.0137953
-0.0128609
-0.0120227
-0.0112925
-0.0106626
-0.0100983
-0.00955485
-0.00901663
-0.00848486
-0.00796831
-0.00747894
-0.00701345
-0.00656339
-0.00612202
-0.00568576
-0.00525387
-0.00482678
-0.00440404
-0.00398492
-0.00356899
-0.00315512
-0.00274203
-0.00232826
-0.00191267
-0.00149446
-0.00107755
-0.000668885
-0.000250219
-0.0499599
-0.0558876
-0.0613154
-0.0662353
-0.0706715
-0.0746654
-0.0782663
-0.081523
-0.0844779
-0.0871651
-0.0896047
-0.0918008
-0.0937441
-0.095416
-0.0967949
-0.0978602
-0.0985961
-0.0989926
-0.0990475
-0.0987663
-0.0981627
-0.0972567
-0.0960711
-0.0946327
-0.092973
-0.0911244
-0.089117
-0.086977
-0.0847264
-0.0823835
-0.0799629
-0.0774761
-0.0749317
-0.0723366
-0.069696
-0.067015
-0.0642982
-0.0615513
-0.0587813
-0.055997
-0.0532101
-0.0504356
-0.047692
-0.0450026
-0.042394
-0.0398987
-0.0375445
-0.0353486
-0.0333146
-0.031429
-0.0296625
-0.0279752
-0.0263288
-0.0246896
-0.0230558
-0.0214581
-0.0199491
-0.0185857
-0.0173987
-0.0163561
-0.0154251
-0.014542
-0.0136965
-0.012888
-0.0121327
-0.0114475
-0.0108232
-0.010232
-0.00965511
-0.00908832
-0.00853829
-0.00801259
-0.00751324
-0.00703793
-0.00658123
-0.00613695
-0.00570041
-0.00526903
-0.00484182
-0.00441846
-0.00399852
-0.00358134
-0.00316599
-0.00275156
-0.00233715
-0.0019219
-0.0015054
-0.00109062
-0.000680898
-0.00025166
-0.049066
-0.0550138
-0.060445
-0.0653861
-0.069877
-0.0739608
-0.0776816
-0.081083
-0.0842017
-0.0870602
-0.0896663
-0.0920158
-0.0940951
-0.0958842
-0.0973609
-0.0985041
-0.0992976
-0.0997314
-0.0998041
-0.0995231
-0.0989044
-0.0979717
-0.096754
-0.0952833
-0.0935926
-0.0917145
-0.0896792
-0.087514
-0.0852421
-0.0828826
-0.0804508
-0.0779584
-0.0754142
-0.072825
-0.070196
-0.0675317
-0.0648364
-0.0621149
-0.059373
-0.0566183
-0.0538606
-0.0511128
-0.0483905
-0.0457133
-0.0431035
-0.0405843
-0.0381776
-0.0358993
-0.0337565
-0.0317459
-0.0298552
-0.0280681
-0.0263354
-0.0246519
-0.0230219
-0.0214711
-0.0200379
-0.0187506
-0.0176158
-0.0166018
-0.0156518
-0.0147329
-0.0138385
-0.0129864
-0.0122013
-0.011492
-0.0108466
-0.010243
-0.00966285
-0.00910028
-0.00855731
-0.0080376
-0.00754214
-0.0070677
-0.00660918
-0.00616188
-0.00572262
-0.00528955
-0.00486163
-0.00443807
-0.00401807
-0.00360074
-0.00318512
-0.00277037
-0.0023559
-0.00194135
-0.00152648
-0.00111175
-0.000696102
-0.000258448
)
;

boundaryField
{
    fixedWalls
    {
        type            zeroGradient;
    }
    inflowWall
    {
        type            zeroGradient;
    }
    outflowWall
    {
        type            fixedValue;
        value           uniform 0;
    }
    frontAndBack
    {
        type            empty;
    }
}


// ************************************************************************* //
