/*--------------------------------*- C++ -*----------------------------------*\
| =========                 |                                                 |
| \\      /  F ield         | OpenFOAM: The Open Source CFD Toolbox           |
|  \\    /   O peration     | Version:  2306                                  |
|   \\  /    A nd           | Website:  www.openfoam.com                      |
|    \\/     M anipulation  |                                                 |
\*---------------------------------------------------------------------------*/
FoamFile
{
    version     2.0;
    format      ascii;
    arch        "LSB;label=32;scalar=64";
    class       surfaceScalarField;
    location    "0.11";
    object      phi;
}
// * * * * * * * * * * * * * * * * * * * * * * * * * * * * * * * * * * * * * //

dimensions      [0 3 -1 0 0 0 0];

oriented        oriented;

internalField   nonuniform List<scalar> 
890
(
8.50942e-05
1.49058e-05
7.2682e-05
1.24121e-05
6.71904e-05
5.49159e-06
6.79512e-05
-7.60744e-07
-9.67695e-06
7.76281e-05
0.000109703
5.20305e-06
0.000117554
4.56076e-06
0.000122429
6.17138e-07
0.000126164
-4.49593e-06
-1.14957e-05
0.000127983
0.000111819
-6.61604e-06
0.000124949
-8.56892e-06
0.000133368
-7.80163e-06
0.000137084
-8.21204e-06
-1.05608e-05
0.000136149
0.000109056
-1.5672e-05
0.000115006
-1.45191e-05
0.00011655
-9.34537e-06
0.000114804
-6.46582e-06
-5.64462e-06
0.000109887
8.4328e-05
6.98089e-05
6.04635e-05
5.39977e-05
4.83531e-05
-1.66247e-06
1.66247e-06
-2.56085e-06
8.98367e-07
-1.76431e-06
-7.96529e-07
4.05066e-07
-2.16938e-06
3.32816e-06
-2.92309e-06
6.43422e-06
-3.10606e-06
9.28883e-06
-2.85462e-06
1.16393e-05
-2.35049e-06
1.33931e-05
-1.75382e-06
1.45737e-05
-1.18059e-06
1.52733e-05
-6.9954e-07
1.56117e-05
-3.38442e-07
1.57071e-05
-9.54322e-08
1.56586e-05
4.85234e-08
1.55397e-05
1.18948e-07
1.53989e-05
1.40798e-07
1.52646e-05
1.34281e-07
1.51505e-05
1.14095e-07
1.50608e-05
8.97114e-08
1.49943e-05
6.64651e-08
1.49475e-05
4.68223e-08
1.4916e-05
3.1485e-08
1.48958e-05
2.01988e-08
1.48835e-05
1.2294e-08
1.48765e-05
7.00151e-09
1.48729e-05
3.61416e-09
1.48714e-05
1.55195e-09
1.4871e-05
3.73853e-10
1.48712e-05
-2.47784e-10
1.48717e-05
-5.18119e-10
1.48723e-05
-5.94932e-10
1.48729e-05
-5.69052e-10
1.48734e-05
-4.95668e-10
1.48738e-05
-4.07064e-10
1.48741e-05
-3.20684e-10
1.48744e-05
-2.44672e-10
1.48746e-05
-1.81816e-10
1.48747e-05
-1.32059e-10
1.48748e-05
-9.39852e-11
1.48749e-05
-6.56664e-11
1.48749e-05
-4.51066e-11
1.48749e-05
-3.04671e-11
1.48749e-05
-2.02088e-11
1.4875e-05
-1.34812e-11
-1.06392e-11
-1.94304e-06
3.60551e-06
-1.43143e-06
3.86763e-07
1.88441e-06
-4.11238e-06
7.18026e-06
-7.46523e-06
1.34348e-05
-9.1776e-06
1.97471e-05
-9.41841e-06
2.54845e-05
-8.59204e-06
3.02758e-05
-7.14177e-06
3.39747e-05
-5.45267e-06
3.66063e-05
-3.81222e-06
3.83087e-05
-2.40193e-06
3.92768e-05
-1.30661e-06
3.97169e-05
-5.35444e-07
3.98132e-05
-4.78273e-08
3.97144e-05
2.17786e-07
3.95248e-05
3.30417e-07
3.93122e-05
3.46876e-07
3.91145e-05
3.1173e-07
3.8949e-05
2.55189e-07
3.882e-05
1.95472e-07
3.87248e-05
1.42024e-07
3.86578e-05
9.85672e-08
3.86124e-05
6.55195e-08
3.85831e-05
4.16649e-08
3.85649e-05
2.51974e-08
3.85542e-05
1.42921e-08
3.85484e-05
7.3697e-09
3.85456e-05
3.18005e-09
3.85445e-05
7.91327e-10
3.85445e-05
-4.53707e-10
3.85449e-05
-1.00833e-09
3.85455e-05
-1.17088e-09
3.85461e-05
-1.12423e-09
3.85467e-05
-9.81367e-10
3.85472e-05
-8.0757e-10
3.85476e-05
-6.37547e-10
3.85479e-05
-4.87552e-10
3.85481e-05
-3.63266e-10
3.85483e-05
-2.64692e-10
3.85484e-05
-1.89076e-10
3.85485e-05
-1.32593e-10
3.85485e-05
-9.12588e-11
3.85486e-05
-6.14386e-11
3.85486e-05
-4.05036e-11
-2.82988e-11
2.97499e-08
3.57576e-06
4.00218e-06
-3.58566e-06
1.07805e-05
-1.08907e-05
1.8744e-05
-1.54287e-05
2.67907e-05
-1.72243e-05
3.42539e-05
-1.68817e-05
4.0741e-05
-1.50791e-05
4.60592e-05
-1.246e-05
5.01684e-05
-9.56181e-06
5.31423e-05
-6.78612e-06
5.51331e-05
-4.39276e-06
5.63358e-05
-2.50932e-06
5.69551e-05
-1.15474e-06
5.71801e-05
-2.728e-07
5.7164e-05
2.33879e-07
5.70228e-05
4.71586e-07
5.68344e-05
5.35266e-07
5.66454e-05
5.00696e-07
5.64797e-05
4.20943e-07
5.6346e-05
3.29183e-07
5.62445e-05
2.43546e-07
5.6171e-05
1.72014e-07
5.61201e-05
1.16486e-07
5.6086e-05
7.56869e-08
5.60642e-05
4.70396e-08
5.60508e-05
2.7726e-08
5.60429e-05
1.52109e-08
5.60387e-05
7.4378e-09
5.60366e-05
2.84587e-09
5.60358e-05
3.12946e-10
5.60358e-05
-9.48022e-10
5.60361e-05
-1.46151e-09
5.60365e-05
-1.55169e-09
5.60369e-05
-1.42888e-09
5.60374e-05
-1.21696e-09
5.60377e-05
-9.8496e-10
5.6038e-05
-7.68145e-10
5.60382e-05
-5.81833e-10
5.60384e-05
-4.30134e-10
5.60385e-05
-3.1132e-10
5.60386e-05
-2.20991e-10
5.60386e-05
-1.53878e-10
5.60387e-05
-1.04831e-10
5.60387e-05
-6.96483e-11
-4.73459e-11
6.0111e-06
-2.43534e-06
1.57669e-05
-1.33415e-05
2.62999e-05
-2.14236e-05
3.5837e-05
-2.49658e-05
4.39256e-05
-2.53129e-05
5.05553e-05
-2.35114e-05
5.5844e-05
-2.03678e-05
5.99422e-05
-1.65582e-05
6.30063e-05
-1.26258e-05
6.51929e-05
-8.9727e-06
6.66589e-05
-5.85878e-06
6.75593e-05
-3.40977e-06
6.80413e-05
-1.6367e-06
6.82361e-05
-4.67601e-07
6.82509e-05
2.1903e-07
6.81673e-05
5.55224e-07
6.80426e-05
6.59977e-07
6.79119e-05
6.31349e-07
6.77942e-05
5.38635e-07
6.76974e-05
4.26034e-07
6.76226e-05
3.18328e-07
6.75677e-05
2.26963e-07
6.75289e-05
1.55212e-07
6.75027e-05
1.01973e-07
6.74854e-05
6.42427e-08
6.74746e-05
3.8562e-08
6.74681e-05
2.17432e-08
6.74644e-05
1.11609e-08
6.74624e-05
4.80154e-09
6.74615e-05
1.20124e-09
6.74612e-05
-6.63807e-10
6.74613e-05
-1.50974e-09
6.74615e-05
-1.75075e-09
6.74617e-05
-1.67892e-09
6.7462e-05
-1.46475e-09
6.74622e-05
-1.20523e-09
6.74624e-05
-9.51713e-10
6.74625e-05
-7.282e-10
6.74626e-05
-5.43012e-10
6.74627e-05
-3.9605e-10
6.74628e-05
-2.83149e-10
6.74628e-05
-1.98586e-10
6.74629e-05
-1.36474e-10
6.74629e-05
-9.17074e-11
-6.24339e-11
2.24628e-05
-2.48981e-05
3.9536e-05
-3.04147e-05
5.10503e-05
-3.29379e-05
5.89871e-05
-3.29026e-05
6.43237e-05
-3.06495e-05
6.78084e-05
-2.69961e-05
7.00373e-05
-2.25967e-05
7.14418e-05
-1.79627e-05
7.23165e-05
-1.35005e-05
7.28523e-05
-9.50851e-06
7.31684e-05
-6.17494e-06
7.33389e-05
-3.58026e-06
7.3412e-05
-1.70981e-06
7.34221e-05
-4.77667e-07
7.33938e-05
2.47335e-07
7.33462e-05
6.02811e-07
7.32928e-05
7.13443e-07
7.32417e-05
6.82412e-07
7.31974e-05
5.82892e-07
7.31616e-05
4.61854e-07
7.31341e-05
3.45823e-07
7.31139e-05
2.47161e-07
7.30996e-05
1.69494e-07
7.30899e-05
1.11722e-07
7.30835e-05
7.06728e-08
7.30794e-05
4.26538e-08
7.30769e-05
2.42437e-08
7.30754e-05
1.26141e-08
7.30746e-05
5.58877e-09
7.30742e-05
1.58052e-09
7.30741e-05
-5.17796e-10
7.30741e-05
-1.498e-09
7.30741e-05
-1.80262e-09
7.30742e-05
-1.75565e-09
7.30743e-05
-1.54524e-09
7.30744e-05
-1.27895e-09
7.30744e-05
-1.01435e-09
7.30745e-05
-7.78841e-10
7.30745e-05
-5.82497e-10
7.30746e-05
-4.25971e-10
7.30746e-05
-3.05327e-10
7.30746e-05
-2.14813e-10
7.30746e-05
-1.48411e-10
7.30746e-05
-1.0074e-10
-6.93762e-11
8.00186e-05
-2.72886e-05
8.35068e-05
-3.39029e-05
8.5226e-05
-3.46571e-05
8.52829e-05
-3.29596e-05
8.41836e-05
-2.95502e-05
8.23748e-05
-2.51872e-05
8.0286e-05
-2.05079e-05
7.8262e-05
-1.59387e-05
7.65194e-05
-1.17579e-05
7.51547e-05
-8.14382e-06
7.41741e-05
-5.19424e-06
7.35282e-05
-2.9344e-06
7.31435e-05
-1.3251e-06
7.29444e-05
-2.78585e-07
7.28638e-05
3.27906e-07
7.28534e-05
6.13247e-07
7.28777e-05
6.89094e-07
7.29152e-05
6.44926e-07
7.29537e-05
5.44392e-07
7.29874e-05
4.28136e-07
7.30144e-05
3.18875e-07
7.30346e-05
2.26935e-07
7.30491e-05
1.5503e-07
7.3059e-05
1.01792e-07
7.30656e-05
6.41061e-08
7.30698e-05
3.84713e-08
7.30723e-05
2.16873e-08
7.30738e-05
1.11282e-08
7.30746e-05
4.78309e-09
7.3075e-05
1.19113e-09
7.30752e-05
-6.69379e-10
7.30752e-05
-1.51262e-09
7.30751e-05
-1.7522e-09
7.3075e-05
-1.67959e-09
7.3075e-05
-1.46505e-09
7.30749e-05
-1.20539e-09
7.30748e-05
-9.51859e-10
7.30748e-05
-7.28369e-10
7.30747e-05
-5.43199e-10
7.30747e-05
-3.96261e-10
7.30747e-05
-2.83465e-10
7.30747e-05
-1.99234e-10
7.30747e-05
-1.37879e-10
7.30747e-05
-9.43118e-11
-6.60873e-11
0.000122599
-2.19055e-05
0.000115887
-2.71907e-05
0.00010878
-2.75498e-05
0.000101366
-2.55458e-05
9.41392e-05
-2.23233e-05
8.75057e-05
-1.85537e-05
8.17382e-05
-1.47404e-05
7.69935e-05
-1.1194e-05
7.33103e-05
-8.07478e-06
7.06246e-05
-5.45806e-06
6.88005e-05
-3.37015e-06
6.76656e-05
-1.79957e-06
6.70415e-05
-7.00933e-07
6.67679e-05
-5.01257e-09
6.67106e-05
3.85241e-07
6.67732e-05
5.5063e-07
6.68883e-05
5.73964e-07
6.7015e-05
5.1823e-07
6.71313e-05
4.28084e-07
6.72278e-05
3.31602e-07
6.73027e-05
2.44029e-07
6.73578e-05
1.71831e-07
6.73967e-05
1.16159e-07
6.74231e-05
7.53999e-08
6.74403e-05
4.68335e-08
6.74512e-05
2.75925e-08
6.74578e-05
1.513e-08
6.74615e-05
7.39093e-09
6.74635e-05
2.8196e-09
6.74644e-05
2.98673e-10
6.74646e-05
-9.56056e-10
6.74646e-05
-1.46562e-09
6.74644e-05
-1.55379e-09
6.74641e-05
-1.42987e-09
6.74639e-05
-1.21742e-09
6.74637e-05
-9.85229e-10
6.74635e-05
-7.68402e-10
6.74633e-05
-5.82126e-10
6.74632e-05
-4.30442e-10
6.74632e-05
-3.11635e-10
6.74631e-05
-2.21434e-10
6.7463e-05
-1.54812e-10
6.7463e-05
-1.06942e-10
6.7463e-05
-7.36347e-11
-5.30088e-11
0.000128914
-1.46705e-05
0.000118582
-1.6859e-05
0.000107471
-1.64383e-05
9.65741e-05
-1.46494e-05
8.65984e-05
-1.23476e-05
7.79881e-05
-9.94341e-06
7.09233e-05
-7.67566e-06
6.5401e-05
-5.67167e-06
6.13022e-05
-3.97599e-06
5.84375e-05
-2.59334e-06
5.65811e-05
-1.51374e-06
5.54992e-05
-7.17681e-07
5.49725e-05
-1.74267e-07
5.48099e-05
1.57553e-07
5.48664e-05
3.28821e-07
5.50308e-05
3.86158e-07
5.52319e-05
3.72931e-07
5.54273e-05
3.22849e-07
5.5596e-05
2.59308e-07
5.5731e-05
1.96587e-07
5.58331e-05
1.42012e-07
5.59067e-05
9.8239e-08
5.59576e-05
6.51813e-08
5.59916e-05
4.14057e-08
5.60134e-05
2.50231e-08
5.60268e-05
1.41838e-08
5.60347e-05
7.30591e-09
5.60389e-05
3.14391e-09
5.6041e-05
7.71331e-10
5.60417e-05
-4.64271e-10
5.60418e-05
-1.01431e-09
5.60415e-05
-1.17403e-09
5.60411e-05
-1.12585e-09
5.60406e-05
-9.82166e-10
5.60402e-05
-8.07981e-10
5.60399e-05
-6.37839e-10
5.60396e-05
-4.87862e-10
5.60394e-05
-3.63614e-10
5.60392e-05
-2.65031e-10
5.60391e-05
-1.89374e-10
5.6039e-05
-1.32936e-10
5.60389e-05
-9.19812e-11
5.60389e-05
-6.32094e-11
5.60389e-05
-4.39955e-11
-3.34811e-11
0.000101263
-6.04554e-06
9.05533e-05
-6.14974e-06
7.96605e-05
-5.54553e-06
6.96317e-05
-4.62062e-06
6.0965e-05
-3.68079e-06
5.38513e-05
-2.82975e-06
4.82739e-05
-2.09828e-06
4.40941e-05
-1.4918e-06
4.11186e-05
-1.00053e-06
3.91365e-05
-6.1127e-07
3.79365e-05
-3.13696e-07
3.73181e-05
-9.93295e-08
3.71023e-05
4.1583e-08
3.71384e-05
1.21406e-07
3.7312e-05
1.55248e-07
3.75406e-05
1.57524e-07
3.77723e-05
1.41267e-07
3.79785e-05
1.16596e-07
3.81475e-05
9.03311e-08
3.82777e-05
6.64003e-08
3.83731e-05
4.65791e-08
3.84401e-05
3.12491e-08
3.84853e-05
2.00213e-08
3.85145e-05
1.21756e-08
3.85326e-05
6.92812e-09
3.85432e-05
3.5711e-09
3.8549e-05
1.52773e-09
3.85518e-05
3.60675e-10
3.85528e-05
-2.54911e-10
3.85529e-05
-5.21896e-10
3.85525e-05
-5.97026e-10
3.85519e-05
-5.70184e-10
3.85512e-05
-4.96251e-10
3.85507e-05
-4.07351e-10
3.85502e-05
-3.20846e-10
3.85498e-05
-2.44828e-10
3.85495e-05
-1.82028e-10
3.85492e-05
-1.3232e-10
3.85491e-05
-9.42423e-11
3.85489e-05
-6.58624e-11
3.85489e-05
-4.52479e-11
3.85488e-05
-3.07022e-11
3.85488e-05
-2.08802e-11
3.85487e-05
-1.49834e-11
-1.32378e-11
4.23076e-05
3.61578e-05
3.06123e-05
2.59917e-05
2.23109e-05
1.94811e-05
1.73828e-05
1.5891e-05
1.48905e-05
1.42792e-05
1.39656e-05
1.38662e-05
1.39078e-05
1.40292e-05
1.41845e-05
1.4342e-05
1.44833e-05
1.45998e-05
1.46902e-05
1.47566e-05
1.48032e-05
1.48344e-05
1.48544e-05
1.48666e-05
1.48735e-05
1.48771e-05
1.48786e-05
1.4879e-05
1.48787e-05
1.48782e-05
1.48776e-05
1.4877e-05
1.48766e-05
1.48761e-05
1.48758e-05
1.48756e-05
1.48754e-05
1.48753e-05
1.48752e-05
1.48751e-05
1.48751e-05
1.4875e-05
1.4875e-05
1.4875e-05
)
;

boundaryField
{
    fixedWalls
    {
        type            calculated;
        value           uniform 0;
    }
    inflowWall
    {
        type            calculated;
        value           nonuniform List<scalar> 5(-0.0001 -0.0001 -0.0001 -0.0001 -0.0001);
    }
    outflowWall
    {
        type            calculated;
        value           nonuniform List<scalar> 10(1.4875e-05 3.85486e-05 5.60387e-05 6.74629e-05 7.30746e-05 7.30747e-05 6.7463e-05 5.60388e-05 3.85487e-05 1.4875e-05);
    }
    frontAndBack
    {
        type            empty;
        value           nonuniform List<scalar> 0();
    }
}


// ************************************************************************* //
