/*--------------------------------*- C++ -*----------------------------------*\
| =========                 |                                                 |
| \\      /  F ield         | OpenFOAM: The Open Source CFD Toolbox           |
|  \\    /   O peration     | Version:  2306                                  |
|   \\  /    A nd           | Website:  www.openfoam.com                      |
|    \\/     M anipulation  |                                                 |
\*---------------------------------------------------------------------------*/
FoamFile
{
    version     2.0;
    format      ascii;
    arch        "LSB;label=32;scalar=64";
    class       volScalarField;
    location    "4.36";
    object      p;
}
// * * * * * * * * * * * * * * * * * * * * * * * * * * * * * * * * * * * * * //

dimensions      [0 2 -2 0 0 0 0];

internalField   nonuniform List<scalar> 
1900
(
0.0563568
0.0321348
0.011742
-0.00359987
-0.0146216
-0.0251796
-0.0356245
-0.047794
-0.060355
-0.074418
0.027096
0.0188973
0.00758077
-0.00397297
-0.0149992
-0.0251892
-0.0356253
-0.0461423
-0.0576433
-0.0687004
0.0180032
0.0135125
0.00599663
-0.00337195
-0.0134561
-0.0234357
-0.0332154
-0.0427683
-0.0521958
-0.061282
0.0123022
0.00922884
0.003579
-0.00406938
-0.012921
-0.0221612
-0.0313522
-0.0402659
-0.0488588
-0.057018
0.0100781
0.00754279
0.00280421
-0.0038437
-0.0118222
-0.0204252
-0.0290993
-0.0375219
-0.0455432
-0.0530742
0.0107124
0.00823174
0.00362116
-0.00284364
-0.0105818
-0.0188848
-0.0271939
-0.0351917
-0.0427542
-0.0498523
0.014168
0.0112221
0.00594127
-0.00114142
-0.009201
-0.017487
-0.0255336
-0.0331634
-0.0403683
-0.0471832
0.0208671
0.0165718
0.00967444
0.00120618
-0.00761288
-0.016036
-0.0238676
-0.0312011
-0.038186
-0.0448844
0.031008
0.0229091
0.0124736
0.00201357
-0.00729215
-0.0154021
-0.0227686
-0.0298143
-0.0367028
-0.0433938
0.0598582
0.0371861
0.01748
0.0034183
-0.00623755
-0.0139307
-0.0211571
-0.0283719
-0.0355249
-0.0424108
-0.0976274
-0.0976609
-0.0977057
-0.0977599
-0.0978202
-0.0978864
-0.0979579
-0.0980337
-0.0981125
-0.0981927
-0.0982727
-0.0983508
-0.0984253
-0.0984944
-0.0985565
-0.09861
-0.0986535
-0.0986853
-0.0987044
-0.0987094
-0.0986995
-0.0986738
-0.0986316
-0.0985723
-0.0984956
-0.098401
-0.0982885
-0.0981577
-0.0980087
-0.0978412
-0.0976552
-0.0974505
-0.097227
-0.0969847
-0.0967232
-0.096442
-0.0961395
-0.0958125
-0.0954554
-0.0950584
-0.0946072
-0.0940812
-0.0934534
-0.0926911
-0.0917568
-0.0906092
-0.0892035
-0.0874903
-0.0854127
-0.0829061
-0.0799
-0.0763211
-0.072098
-0.0671727
-0.0615112
-0.0551099
-0.0480127
-0.0402871
-0.0320291
-0.0233687
-0.0144603
-0.00547814
0.00340244
0.012004
0.0201592
0.027719
0.0345517
0.040562
0.0456743
0.0498542
0.0530811
0.0553739
0.056757
0.0572899
0.0570265
0.0560501
0.0544254
0.0522429
0.049564
0.0464765
0.0430269
0.039293
0.0352996
0.0311134
0.026732
0.0222172
0.0175303
0.0127439
0.00775682
0.00270237
-0.0976229
-0.0976546
-0.0976816
-0.0977232
-0.0977744
-0.097834
-0.0979002
-0.0979716
-0.0980465
-0.0981233
-0.0982004
-0.0982761
-0.0983486
-0.0984162
-0.0984771
-0.0985297
-0.0985724
-0.0986038
-0.0986224
-0.0986272
-0.098617
-0.0985908
-0.098548
-0.0984878
-0.0984098
-0.0983136
-0.0981987
-0.0980651
-0.0979124
-0.0977404
-0.0975488
-0.0973372
-0.0971052
-0.0968521
-0.0965771
-0.0962789
-0.0959556
-0.0956041
-0.095219
-0.0947925
-0.0943131
-0.0937652
-0.0931284
-0.0923766
-0.0914783
-0.0903964
-0.0890871
-0.0874987
-0.085568
-0.0832185
-0.0803632
-0.0769145
-0.0727934
-0.0679571
-0.0623977
-0.0561027
-0.0490822
-0.0414008
-0.0331627
-0.024504
-0.0155804
-0.00657183
0.00234279
0.0109801
0.0191656
0.0267616
0.0336191
0.0396508
0.0447794
0.0489761
0.0522171
0.0545242
0.0559191
0.0564669
0.056217
0.0552598
0.0536548
0.0515017
0.0488516
0.0458029
0.0423886
0.0387018
0.0347497
0.0306191
0.0262857
0.0218328
0.0171972
0.0124717
0.00756161
0.00260162
-0.0975053
-0.0975866
-0.0976322
-0.0976857
-0.0977419
-0.0978035
-0.0978713
-0.0979446
-0.0980217
-0.0981012
-0.0981814
-0.0982603
-0.0983362
-0.0984072
-0.0984715
-0.0985275
-0.0985734
-0.0986077
-0.0986291
-0.098636
-0.0986275
-0.0986025
-0.0985604
-0.0985004
-0.0984221
-0.0983251
-0.0982091
-0.0980742
-0.0979202
-0.0977471
-0.0975548
-0.097343
-0.0971109
-0.0968578
-0.0965825
-0.0962834
-0.0959583
-0.0956036
-0.0952147
-0.0947851
-0.0943068
-0.0937696
-0.09316
-0.0924596
-0.0916428
-0.0906738
-0.0895048
-0.0880768
-0.0863155
-0.0841294
-0.0814221
-0.0781291
-0.0741532
-0.0694175
-0.0638849
-0.0575748
-0.0505262
-0.0428181
-0.0345525
-0.0258658
-0.0169158
-0.00790499
0.00099727
0.00962171
0.0177897
0.0253611
0.0321931
0.0381982
0.0432971
0.0474641
0.0506758
0.0529596
0.0543364
0.0548768
0.0546282
0.0536862
0.0521062
0.0499923
0.047392
0.0444077
0.0410688
0.037471
0.0336195
0.0296011
0.0253931
0.0210755
0.0165967
0.0120375
0.00732419
0.00254955
-0.0975874
-0.0976611
-0.0976654
-0.0976913
-0.097737
-0.0977992
-0.0978726
-0.0979533
-0.0980388
-0.0981269
-0.0982154
-0.0983023
-0.0983856
-0.0984632
-0.0985335
-0.0985945
-0.0986446
-0.0986822
-0.0987059
-0.0987145
-0.0987067
-0.0986817
-0.0986387
-0.0985771
-0.0984965
-0.0983965
-0.0982771
-0.0981383
-0.0979804
-0.0978035
-0.0976076
-0.0973926
-0.0971578
-0.096902
-0.0966235
-0.0963209
-0.0959924
-0.0956355
-0.0952472
-0.0948231
-0.0943568
-0.0938409
-0.0932679
-0.0926243
-0.0918857
-0.0910135
-0.0899527
-0.088641
-0.0870012
-0.0849358
-0.0823354
-0.0790968
-0.0751609
-0.070461
-0.0649687
-0.0586962
-0.0516838
-0.0440164
-0.0358041
-0.0271879
-0.0183344
-0.0094282
-0.000651654
0.00782698
0.0158354
0.0232359
0.0298968
0.0357345
0.0406757
0.0446977
0.0477832
0.0499632
0.0512634
0.0517558
0.0514911
0.0505636
0.0490306
0.0469926
0.0444995
0.0416478
0.0384704
0.0350545
0.0314113
0.027617
0.0236595
0.0196059
0.0154216
0.0111685
0.00679003
0.00234853
-0.097261
-0.0974664
-0.0975573
-0.0976615
-0.0977602
-0.0978536
-0.0979463
-0.0980416
-0.0981392
-0.0982375
-0.0983347
-0.0984289
-0.098518
-0.0986004
-0.098674
-0.0987373
-0.0987886
-0.0988264
-0.0988493
-0.0988559
-0.0988451
-0.0988162
-0.0987686
-0.0987018
-0.0986155
-0.0985095
-0.0983841
-0.0982395
-0.0980764
-0.0978951
-0.0976959
-0.0974788
-0.097243
-0.0969867
-0.0967076
-0.0964049
-0.0960771
-0.0957223
-0.0953383
-0.0949219
-0.0944677
-0.0939681
-0.0934215
-0.092814
-0.0921192
-0.0912961
-0.0902808
-0.0890013
-0.0873736
-0.0853117
-0.0827106
-0.0794806
-0.0755468
-0.0708589
-0.0653942
-0.0591706
-0.0522373
-0.0446825
-0.0366223
-0.0282011
-0.0195832
-0.0109453
-0.00246735
0.00568537
0.0133534
0.0204056
0.026725
0.0322344
0.0368729
0.0406229
0.0434777
0.0454712
0.0466371
0.047046
0.046754
0.0458497
0.0443942
0.0424792
0.0401583
0.0375167
0.0345924
0.0314593
0.0281364
0.0246852
0.0211055
0.0174484
0.0136951
0.0098896
0.0059975
0.00206382
-0.0980928
-0.0981154
-0.0980143
-0.0979694
-0.0979801
-0.098038
-0.098126
-0.0982271
-0.0983302
-0.0984322
-0.0985308
-0.0986244
-0.0987114
-0.09879
-0.0988588
-0.0989164
-0.0989614
-0.0989923
-0.0990079
-0.0990069
-0.0989883
-0.0989514
-0.0988959
-0.0988216
-0.0987282
-0.0986156
-0.0984839
-0.0983339
-0.0981663
-0.0979815
-0.09778
-0.0975615
-0.097325
-0.0970684
-0.0967884
-0.0964884
-0.0961652
-0.0958158
-0.095438
-0.0950289
-0.0945837
-0.0940923
-0.0935392
-0.0929154
-0.0921941
-0.091332
-0.0902675
-0.0889302
-0.087236
-0.0850982
-0.0824226
-0.0791276
-0.0751472
-0.0704439
-0.0650054
-0.058857
-0.0520561
-0.0446965
-0.0368982
-0.0288065
-0.0205814
-0.012391
-0.00440216
0.00322967
0.0103628
0.0168784
0.0226781
0.0276956
0.0318872
0.0352431
0.03777
0.0395048
0.0404907
0.0407944
0.0404776
0.0396199
0.0382852
0.036553
0.0344789
0.0321338
0.0295592
0.0268136
0.023922
0.0209303
0.0178476
0.0147089
0.0115092
0.00827705
0.0049971
0.00169821
-0.0967658
-0.0974126
-0.0976156
-0.0978723
-0.0980879
-0.0982511
-0.0983735
-0.0984746
-0.0985676
-0.0986559
-0.09874
-0.0988187
-0.0988906
-0.0989545
-0.0990091
-0.0990532
-0.0990857
-0.0991053
-0.0991105
-0.0990999
-0.0990725
-0.0990276
-0.0989648
-0.0988839
-0.0987844
-0.098666
-0.0985293
-0.0983759
-0.0982062
-0.09802
-0.0978176
-0.0975989
-0.097363
-0.0971076
-0.0968275
-0.0965181
-0.0961826
-0.0958189
-0.0954222
-0.0949874
-0.0945072
-0.093972
-0.0933674
-0.0926749
-0.0918636
-0.0908898
-0.0896939
-0.0882071
-0.086351
-0.0840468
-0.0812157
-0.0777912
-0.0737226
-0.0689855
-0.0635814
-0.0575462
-0.050946
-0.0438796
-0.0364683
-0.0288546
-0.0211898
-0.0136305
-0.00632412
0.000592696
0.00700245
0.0128057
0.0179272
0.0223168
0.0259501
0.0288272
0.0309685
0.0324126
0.0332096
0.0334206
0.0331086
0.0323422
0.0311845
0.0297005
0.027945
0.0259732
0.0238273
0.0215503
0.0191707
0.0167193
0.014212
0.0116697
0.00909768
0.00651068
0.00390798
0.00130512
-0.101479
-0.100099
-0.0994709
-0.0990376
-0.0988112
-0.0987219
-0.0987102
-0.0987347
-0.0987737
-0.0988195
-0.098869
-0.0989188
-0.0989668
-0.0990113
-0.0990503
-0.0990817
-0.0991042
-0.0991149
-0.0991113
-0.0990929
-0.0990594
-0.0990099
-0.0989444
-0.098862
-0.0987617
-0.0986423
-0.0985022
-0.0983414
-0.0981627
-0.0979662
-0.0977509
-0.0975151
-0.097257
-0.0969736
-0.0966613
-0.0963171
-0.0959385
-0.0955217
-0.0950608
-0.0945484
-0.0939748
-0.0933276
-0.0925892
-0.0917363
-0.0907366
-0.0895479
-0.0881161
-0.0863795
-0.0842709
-0.0817245
-0.0786797
-0.0750897
-0.070923
-0.0661718
-0.0608525
-0.0550117
-0.0487209
-0.0420796
-0.0352045
-0.0282295
-0.0212912
-0.0145283
-0.00806635
-0.00201751
0.00353023
0.00850253
0.0128502
0.0165418
0.0195719
0.0219493
0.0237038
0.0248732
0.0255089
0.0256634
0.0253971
0.0247656
0.0238283
0.0226355
0.0212389
0.0196786
0.0179954
0.0162182
0.0143769
0.0124893
0.0105762
0.00864597
0.00671242
0.00477766
0.00285068
0.000931029
-0.0956365
-0.0967241
-0.0975617
-0.0981738
-0.0984907
-0.0986094
-0.098644
-0.0986576
-0.0986734
-0.0987037
-0.098743
-0.0987838
-0.0988245
-0.0988635
-0.0988989
-0.0989286
-0.0989517
-0.0989677
-0.0989722
-0.0989592
-0.0989271
-0.0988756
-0.0988045
-0.0987139
-0.098603
-0.0984692
-0.0983104
-0.0981263
-0.097917
-0.097682
-0.0974198
-0.0971283
-0.0968047
-0.0964452
-0.0960456
-0.095601
-0.0951066
-0.0945566
-0.0939441
-0.0932599
-0.0924924
-0.0916268
-0.0906445
-0.0895225
-0.0882308
-0.0867321
-0.084982
-0.0829315
-0.080529
-0.0777263
-0.0744805
-0.0707607
-0.0665536
-0.0618689
-0.0567377
-0.0512153
-0.0453758
-0.0393142
-0.0331361
-0.026958
-0.0208933
-0.0150541
-0.00953684
-0.00442906
0.000206345
0.00431997
0.00788718
0.0108934
0.0133465
0.0152606
0.016669
0.0176049
0.0181171
0.0182479
0.0180523
0.0175736
0.0168663
0.0159679
0.0149265
0.0137686
0.0125339
0.0112376
0.00991149
0.00856028
0.00720993
0.00585628
0.0045218
0.00319546
0.00189786
0.000610758
-0.118314
-0.103395
-0.101468
-0.0999916
-0.0990768
-0.0986483
-0.0984737
-0.0984116
-0.0983928
-0.0983963
-0.098435
-0.098497
-0.098562
-0.0986226
-0.0986774
-0.0987246
-0.0987615
-0.0987846
-0.0987887
-0.0987687
-0.0987217
-0.0986467
-0.0985441
-0.0984145
-0.0982562
-0.0980658
-0.0978405
-0.0975779
-0.0972765
-0.0969349
-0.0965511
-0.0961232
-0.0956481
-0.0951219
-0.0945401
-0.0938977
-0.0931889
-0.0924077
-0.0915468
-0.0905972
-0.0895476
-0.088384
-0.087088
-0.0856365
-0.0840031
-0.0821588
-0.0800709
-0.0777056
-0.0750294
-0.0720129
-0.068634
-0.0648824
-0.0607619
-0.056294
-0.051516
-0.0464822
-0.0412595
-0.0359289
-0.0305777
-0.0252994
-0.0201822
-0.0153109
-0.0107552
-0.00657784
-0.00282135
0.000484826
0.00333294
0.00571901
0.00765755
0.00916331
0.0102699
0.0110056
0.0114155
0.0115328
0.0114074
0.0110722
0.0105772
0.00994895
0.00923245
0.00844285
0.00761842
0.00676189
0.00590655
0.00504364
0.0042047
0.00337087
0.00257532
0.00179008
0.00105173
0.000319165
-0.0858723
-0.0923285
-0.0948362
-0.0956795
-0.0961271
-0.0965289
-0.0969006
-0.0972129
-0.0974831
-0.0977184
-0.097921
-0.0980931
-0.0982379
-0.0983592
-0.0984594
-0.0985378
-0.0985914
-0.0986154
-0.0986049
-0.0985551
-0.098463
-0.0983268
-0.0981459
-0.09792
-0.097648
-0.0973279
-0.0969576
-0.0965353
-0.0960597
-0.0955294
-0.0949424
-0.0942952
-0.0935843
-0.0928062
-0.0919574
-0.0910335
-0.0900298
-0.0889408
-0.0877599
-0.0864796
-0.0850904
-0.0835808
-0.081937
-0.080143
-0.0781812
-0.0760325
-0.0736771
-0.0710953
-0.0682692
-0.0651855
-0.0618371
-0.0582258
-0.0543637
-0.0502746
-0.0459937
-0.041567
-0.0370488
-0.0325033
-0.0279991
-0.0236084
-0.0193992
-0.0154354
-0.0117684
-0.00843963
-0.00547281
-0.00288294
-0.000669247
0.00117118
0.00265515
0.00379873
0.00463425
0.00518845
0.00550275
0.00560577
0.0055416
0.00533575
0.00503185
0.00464804
0.00422464
0.00376813
0.00331404
0.00285465
0.00242282
0.00199683
0.0016123
0.00123462
0.000908288
0.000583772
0.000317355
3.899e-05
-0.0799426
-0.0877186
-0.0917004
-0.0931253
-0.0935602
-0.0938981
-0.0943968
-0.0950133
-0.0956341
-0.0961846
-0.0966418
-0.0970142
-0.0973198
-0.0975731
-0.0977812
-0.0979443
-0.0980582
-0.0981169
-0.0981141
-0.098045
-0.0979062
-0.0976958
-0.0974134
-0.0970593
-0.0966341
-0.0961381
-0.0955715
-0.0949346
-0.0942273
-0.0934496
-0.0926006
-0.0916792
-0.0906838
-0.0896124
-0.0884629
-0.0872327
-0.0859185
-0.0845165
-0.0830222
-0.0814304
-0.079735
-0.0779288
-0.0760039
-0.0739511
-0.0717606
-0.0694219
-0.0669242
-0.0642573
-0.0614133
-0.0583881
-0.0551824
-0.0518034
-0.0482656
-0.0445924
-0.0408157
-0.0369765
-0.0331223
-0.0293039
-0.0255734
-0.0219833
-0.0185835
-0.0154193
-0.0125262
-0.00993082
-0.0076476
-0.00568284
-0.00402914
-0.00267321
-0.00159397
-0.000771549
-0.000176097
0.000219356
0.000452629
0.000552373
0.000556517
0.000485889
0.000372986
0.000228604
8.26736e-05
-6.37118e-05
-0.000182583
-0.000286923
-0.000349433
-0.00039906
-0.00040205
-0.000403535
-0.000352174
-0.000316257
-0.000219769
-0.000166283
-0.0697446
-0.0769331
-0.0822766
-0.0857664
-0.0879109
-0.0893679
-0.0905856
-0.0917432
-0.092853
-0.0938697
-0.0947555
-0.0955004
-0.096115
-0.0966162
-0.0970174
-0.0973252
-0.09754
-0.097659
-0.0976782
-0.0975945
-0.0974064
-0.0971136
-0.0967176
-0.096221
-0.0956268
-0.0949383
-0.0941587
-0.093291
-0.0923376
-0.0913009
-0.0901825
-0.0889835
-0.0877042
-0.0863445
-0.0849036
-0.0833803
-0.0817729
-0.0800795
-0.0782977
-0.0764249
-0.0744582
-0.0723945
-0.0702307
-0.0679634
-0.0655896
-0.0631061
-0.0605104
-0.057801
-0.0549778
-0.0520425
-0.0489998
-0.0458586
-0.042633
-0.0393438
-0.03602
-0.0326985
-0.0294223
-0.026236
-0.0231826
-0.0202996
-0.0176172
-0.015158
-0.0129391
-0.0109758
-0.00927973
-0.00785432
-0.00668582
-0.00574637
-0.00500316
-0.0044294
-0.00400033
-0.00369402
-0.00348039
-0.00333067
-0.00321371
-0.00311289
-0.00301174
-0.00290857
-0.0027908
-0.00266126
-0.00250471
-0.0023316
-0.00212445
-0.00190584
-0.00164932
-0.00139441
-0.00109661
-0.000825266
-0.000499379
-0.000245304
-0.0645314
-0.0711551
-0.07663
-0.0808514
-0.0839429
-0.0862149
-0.0880082
-0.0895616
-0.0909832
-0.0922902
-0.0934629
-0.0944805
-0.0953368
-0.0960374
-0.0965923
-0.0970098
-0.0972936
-0.0974436
-0.0974582
-0.0973357
-0.0970762
-0.0966813
-0.0961546
-0.0955008
-0.0947257
-0.0938351
-0.092835
-0.0917311
-0.0905287
-0.0892325
-0.0878466
-0.0863742
-0.0848173
-0.0831772
-0.0814545
-0.0796494
-0.0777617
-0.0757912
-0.0737377
-0.0716013
-0.0693824
-0.0670819
-0.064701
-0.0622418
-0.0597072
-0.057101
-0.0544279
-0.0516934
-0.0489037
-0.0460656
-0.0431868
-0.0402764
-0.0373462
-0.0344129
-0.0315
-0.0286399
-0.0258735
-0.0232462
-0.0207988
-0.0185582
-0.0165316
-0.0147098
-0.0130805
-0.0116451
-0.0104185
-0.00941105
-0.00860841
-0.00796922
-0.00744081
-0.00698688
-0.00659393
-0.00625946
-0.00597313
-0.00571553
-0.0054617
-0.00519504
-0.00490546
-0.00459559
-0.0042683
-0.0039332
-0.00358957
-0.00324385
-0.00288776
-0.00252977
-0.00215542
-0.00178375
-0.0013888
-0.00101426
-0.000602306
-0.000258426
-0.0600318
-0.0663084
-0.0717762
-0.0763395
-0.0800056
-0.0829075
-0.0852555
-0.0872491
-0.0890211
-0.0906299
-0.0920832
-0.0933674
-0.0944691
-0.0953832
-0.0961119
-0.09666
-0.0970316
-0.0972282
-0.0972502
-0.0970982
-0.0967742
-0.0962827
-0.09563
-0.0948239
-0.0938727
-0.0927849
-0.0915691
-0.0902338
-0.0887872
-0.0872371
-0.0855902
-0.0838518
-0.0820258
-0.080115
-0.0781215
-0.0760466
-0.0738917
-0.0716585
-0.069349
-0.0669661
-0.0645137
-0.0619967
-0.0594207
-0.0567928
-0.0541213
-0.051416
-0.0486886
-0.0459517
-0.0432182
-0.0405
-0.0378071
-0.0351484
-0.0325321
-0.029968
-0.0274691
-0.0250555
-0.0227614
-0.0206341
-0.0187197
-0.0170427
-0.0155865
-0.0143013
-0.0131383
-0.0120841
-0.0111594
-0.0103885
-0.00977209
-0.00927014
-0.0088173
-0.00836467
-0.00790237
-0.00744694
-0.00701586
-0.00661426
-0.00623461
-0.00586649
-0.0054982
-0.00512236
-0.0047354
-0.00434038
-0.00393888
-0.00353547
-0.00312819
-0.00272059
-0.00230704
-0.00189442
-0.0014725
-0.00106057
-0.000631673
-0.000251552
-0.0564668
-0.0625429
-0.0679946
-0.072744
-0.0767682
-0.0801208
-0.0829235
-0.0853216
-0.0874359
-0.0893379
-0.0910537
-0.0925808
-0.0939064
-0.0950192
-0.0959135
-0.0965885
-0.0970453
-0.0972849
-0.0973084
-0.097118
-0.0967182
-0.0961172
-0.0953257
-0.0943557
-0.0932191
-0.091927
-0.0904906
-0.0889212
-0.0872298
-0.0854267
-0.0835211
-0.0815208
-0.079432
-0.0772593
-0.0750063
-0.0726758
-0.070271
-0.0677954
-0.0652534
-0.062651
-0.0599959
-0.0572974
-0.0545664
-0.0518146
-0.049055
-0.0463013
-0.0435708
-0.0408836
-0.0382595
-0.035714
-0.0332563
-0.0308911
-0.0286209
-0.0264479
-0.0243725
-0.0223935
-0.0205264
-0.018812
-0.0172988
-0.0160221
-0.0149558
-0.0140254
-0.0131624
-0.0123405
-0.0115694
-0.0108598
-0.0102334
-0.00969498
-0.00921172
-0.00874814
-0.00829789
-0.00785812
-0.0074197
-0.00697925
-0.00653628
-0.00609143
-0.00564735
-0.00520891
-0.00477932
-0.00435935
-0.00394596
-0.00353834
-0.00313284
-0.00272755
-0.00231825
-0.00190605
-0.00148722
-0.00106862
-0.000644515
-0.000255424
-0.053606
-0.0595816
-0.0650285
-0.069881
-0.0741185
-0.0777737
-0.0809234
-0.0836664
-0.086096
-0.0882784
-0.0902463
-0.0920048
-0.0935438
-0.0948484
-0.0959064
-0.0967102
-0.097256
-0.0975422
-0.0975692
-0.09734
-0.0968613
-0.0961445
-0.0952068
-0.0940666
-0.0927404
-0.091243
-0.0895885
-0.087791
-0.0858644
-0.0838217
-0.0816749
-0.0794343
-0.0771083
-0.0747037
-0.0722258
-0.0696796
-0.0670699
-0.0644022
-0.0616834
-0.0589226
-0.0561311
-0.0533232
-0.0505152
-0.0477249
-0.0449684
-0.0422589
-0.0396147
-0.0370606
-0.0346185
-0.0323013
-0.030111
-0.0280421
-0.0260879
-0.0242463
-0.0225154
-0.0208964
-0.0193848
-0.0179961
-0.016758
-0.0156737
-0.0147268
-0.0138906
-0.0131348
-0.0124419
-0.0118106
-0.011251
-0.0107116
-0.0101446
-0.00954212
-0.00893612
-0.00835777
-0.0078235
-0.0073366
-0.00688976
-0.0064652
-0.00604853
-0.00563239
-0.00521488
-0.0047966
-0.00437971
-0.00396618
-0.00355575
-0.00314668
-0.00273757
-0.00232635
-0.00191213
-0.00149337
-0.00107362
-0.000658173
-0.000252123
-0.0512567
-0.0572119
-0.0626663
-0.0675757
-0.0719405
-0.0757985
-0.07921
-0.0822426
-0.08496
-0.0874125
-0.089629
-0.091617
-0.0933674
-0.0948635
-0.0960876
-0.0970249
-0.0976656
-0.0980044
-0.0980406
-0.0977781
-0.0972258
-0.0963984
-0.0953184
-0.0940114
-0.0925007
-0.0908079
-0.0889529
-0.0869544
-0.0848298
-0.0825946
-0.0802628
-0.0778459
-0.0753536
-0.0727936
-0.0701726
-0.0674966
-0.0647717
-0.0620047
-0.0592041
-0.0563804
-0.053547
-0.0507205
-0.047921
-0.045171
-0.0424908
-0.0398951
-0.0374061
-0.0350438
-0.0328191
-0.0307307
-0.0287686
-0.0269152
-0.0251518
-0.0234735
-0.0218971
-0.020453
-0.0191751
-0.0180789
-0.0171454
-0.0162927
-0.0154216
-0.0144974
-0.0135435
-0.0126297
-0.0118293
-0.0111386
-0.01054
-0.00999368
-0.00945722
-0.00892491
-0.00840201
-0.00789867
-0.00742326
-0.00696889
-0.00652697
-0.00609164
-0.00566045
-0.00523343
-0.00481106
-0.00439245
-0.00397723
-0.00356477
-0.00315379
-0.002743
-0.00233099
-0.00191663
-0.00149908
-0.00108207
-0.000672003
-0.000250529
-0.0497589
-0.0556832
-0.0611072
-0.0660225
-0.0704537
-0.0744419
-0.0780367
-0.0812868
-0.0842347
-0.0869145
-0.0893465
-0.0915345
-0.0934693
-0.0951326
-0.0965023
-0.0975581
-0.0982838
-0.0986695
-0.0987127
-0.0984189
-0.0978015
-0.0968802
-0.0956777
-0.0942209
-0.0925417
-0.0906726
-0.0886436
-0.0864809
-0.0842068
-0.0818398
-0.0793947
-0.076883
-0.0743138
-0.071694
-0.0690292
-0.0663248
-0.0635859
-0.0608186
-0.0580303
-0.0552308
-0.0524326
-0.0496518
-0.0469081
-0.0442264
-0.0416347
-0.0391666
-0.0368487
-0.0346954
-0.0327064
-0.0308628
-0.0291314
-0.0274728
-0.0258393
-0.024206
-0.0225801
-0.0210012
-0.019527
-0.0182168
-0.0170798
-0.0160807
-0.0151739
-0.01431
-0.01348
-0.0126916
-0.0119613
-0.011304
-0.0106988
-0.0101188
-0.00954949
-0.00899142
-0.00845275
-0.00794005
-0.00745367
-0.00698997
-0.00654261
-0.00610554
-0.00567475
-0.00524833
-0.00482567
-0.00440653
-0.00399045
-0.00357665
-0.00316413
-0.00275193
-0.00233916
-0.00192491
-0.00150877
-0.00109361
-0.00068262
-0.000251635
-0.0488637
-0.0548078
-0.0602348
-0.0651711
-0.0696566
-0.0737345
-0.0774488
-0.0808431
-0.0839546
-0.0868054
-0.0894035
-0.0917449
-0.0938159
-0.0955964
-0.0970641
-0.0981981
-0.0989817
-0.099405
-0.0994664
-0.099173
-0.0985409
-0.0975935
-0.0963596
-0.0948715
-0.0931622
-0.0912642
-0.0892079
-0.0870208
-0.0847263
-0.0823436
-0.0798881
-0.0773718
-0.0748037
-0.0721908
-0.0695387
-0.0668521
-0.0641357
-0.0613946
-0.0586352
-0.0558658
-0.0530969
-0.0503421
-0.0476184
-0.0449463
-0.0423492
-0.0398507
-0.0374722
-0.0352281
-0.0331227
-0.0311501
-0.0292984
-0.0275368
-0.0258231
-0.0241571
-0.022548
-0.0210274
-0.0196357
-0.0183966
-0.0173091
-0.0163274
-0.0153968
-0.0144896
-0.0136085
-0.0127778
-0.0120212
-0.0113389
-0.0107153
-0.0101261
-0.00955654
-0.00900453
-0.00847353
-0.00796676
-0.00748355
-0.00701965
-0.00656972
-0.00612947
-0.00569622
-0.0052685
-0.00484546
-0.00442633
-0.0040103
-0.00359643
-0.0031837
-0.00277121
-0.00235834
-0.00194466
-0.0015299
-0.00111451
-0.000697501
-0.000258311
)
;

boundaryField
{
    fixedWalls
    {
        type            zeroGradient;
    }
    inflowWall
    {
        type            zeroGradient;
    }
    outflowWall
    {
        type            fixedValue;
        value           uniform 0;
    }
    frontAndBack
    {
        type            empty;
    }
}


// ************************************************************************* //
