/*--------------------------------*- C++ -*----------------------------------*\
| =========                 |                                                 |
| \\      /  F ield         | OpenFOAM: The Open Source CFD Toolbox           |
|  \\    /   O peration     | Version:  2306                                  |
|   \\  /    A nd           | Website:  www.openfoam.com                      |
|    \\/     M anipulation  |                                                 |
\*---------------------------------------------------------------------------*/
FoamFile
{
    version     2.0;
    format      ascii;
    arch        "LSB;label=32;scalar=64";
    class       volScalarField;
    location    "4.16";
    object      p;
}
// * * * * * * * * * * * * * * * * * * * * * * * * * * * * * * * * * * * * * //

dimensions      [0 2 -2 0 0 0 0];

internalField   nonuniform List<scalar> 
1900
(
0.0567179
0.0324951
0.0121015
-0.00324161
-0.0142649
-0.0248256
-0.035274
-0.0474484
-0.0600158
-0.0740876
0.0274571
0.0192583
0.00794097
-0.00361385
-0.0146416
-0.0248338
-0.0352729
-0.0457935
-0.0572989
-0.0683599
0.0183652
0.0138742
0.00635789
-0.00301147
-0.0130967
-0.0230775
-0.0328586
-0.0424131
-0.0518424
-0.0609311
0.0126651
0.0095916
0.00394146
-0.00370738
-0.0125596
-0.0218006
-0.0309925
-0.0399073
-0.0485013
-0.0566613
0.0104421
0.00790675
0.0031681
-0.00347989
-0.0114585
-0.0200616
-0.0287358
-0.0371583
-0.0451791
-0.0527089
0.0110775
0.0085969
0.00398648
-0.00247809
-0.0102159
-0.0185184
-0.0268267
-0.0348234
-0.0423842
-0.0494802
0.0145341
0.0115884
0.00630791
-0.000774239
-0.00883303
-0.0171179
-0.025163
-0.0327909
-0.0399933
-0.046805
0.0212341
0.016939
0.0100422
0.00157475
-0.00724316
-0.0156647
-0.0234942
-0.0308251
-0.0378067
-0.044501
0.0313758
0.0232771
0.0128423
0.00238329
-0.00692095
-0.015029
-0.0223929
-0.0294355
-0.03632
-0.0430061
0.0602263
0.0375546
0.0178492
0.00378867
-0.00586556
-0.0135565
-0.0207802
-0.0279914
-0.0351401
-0.0420206
-0.0973098
-0.0973432
-0.0973881
-0.0974422
-0.0975025
-0.0975686
-0.0976402
-0.097716
-0.0977949
-0.0978752
-0.0979553
-0.0980337
-0.0981085
-0.0981781
-0.0982409
-0.0982953
-0.0983399
-0.0983732
-0.0983941
-0.0984014
-0.0983941
-0.0983716
-0.0983332
-0.0982783
-0.0982067
-0.098118
-0.098012
-0.0978888
-0.0977482
-0.0975902
-0.0974148
-0.0972222
-0.0970124
-0.0967858
-0.0965424
-0.0962818
-0.0960025
-0.0957007
-0.0953695
-0.0949971
-0.0945658
-0.0940512
-0.0934223
-0.0926422
-0.0916701
-0.0904617
-0.0889687
-0.0871362
-0.0849008
-0.0821907
-0.0789278
-0.0750329
-0.0704342
-0.0650842
-0.0589617
-0.052085
-0.0445166
-0.0363399
-0.0276719
-0.0186651
-0.00949415
-0.000338841
0.00861588
0.0171907
0.0252216
0.032571
0.0391077
0.044756
0.0494572
0.0531916
0.0559552
0.0577804
0.0587062
0.0588021
0.0581326
0.0567859
0.0548328
0.0523658
0.0494497
0.0461697
0.042574
0.0387354
0.0346797
0.0304677
0.0260986
0.0216267
0.0170176
0.0123351
0.00748986
0.00259598
-0.0973054
-0.097337
-0.097364
-0.0974056
-0.0974568
-0.0975163
-0.0975826
-0.097654
-0.0977289
-0.0978059
-0.0978832
-0.0979591
-0.0980319
-0.0981
-0.0981615
-0.098215
-0.0982588
-0.0982915
-0.0983119
-0.0983188
-0.0983111
-0.098288
-0.0982488
-0.0981928
-0.0981197
-0.098029
-0.0979205
-0.0977941
-0.0976494
-0.0974864
-0.0973048
-0.0971045
-0.096885
-0.0966459
-0.0963867
-0.0961062
-0.0958025
-0.0954721
-0.0951091
-0.0947042
-0.094244
-0.0937104
-0.0930798
-0.0923231
-0.0914048
-0.0902828
-0.0889079
-0.0872205
-0.0851478
-0.0826033
-0.0794898
-0.0757125
-0.0712082
-0.0659558
-0.0599391
-0.0531591
-0.0456504
-0.0375054
-0.0288465
-0.0198287
-0.0106327
-0.00144478
0.00754784
0.016158
0.0242139
0.0316188
0.0381684
0.043836
0.0485543
0.0523058
0.0550834
0.0569232
0.0578615
0.0579731
0.057319
0.055995
0.0540668
0.0516332
0.0487495
0.0455109
0.0419533
0.0381636
0.0341512
0.0299952
0.0256747
0.0212651
0.0167095
0.0120881
0.00731429
0.00250921
-0.0971877
-0.0972689
-0.0973145
-0.0973681
-0.0974243
-0.0974859
-0.0975538
-0.097627
-0.0977042
-0.0977837
-0.097864
-0.0979431
-0.0980193
-0.0980907
-0.0981556
-0.0982123
-0.0982592
-0.0982949
-0.0983178
-0.0983267
-0.0983206
-0.0982985
-0.0982598
-0.0982038
-0.0981302
-0.0980387
-0.097929
-0.0978013
-0.0976554
-0.0974914
-0.0973093
-0.0971086
-0.0968889
-0.0966493
-0.0963889
-0.096106
-0.0957982
-0.0954621
-0.0950928
-0.0946837
-0.0942264
-0.0937095
-0.093118
-0.0924308
-0.0916166
-0.0906308
-0.0894174
-0.0879069
-0.0860118
-0.0836333
-0.0806774
-0.0770587
-0.0726846
-0.0674939
-0.0614781
-0.0546703
-0.0471294
-0.0389562
-0.030271
-0.0212139
-0.0120079
-0.00282355
0.00615417
0.0147506
0.0227938
0.0301538
0.0366862
0.0423261
0.0470135
0.050736
0.0534868
0.055307
0.0562323
0.056343
0.0556976
0.0543959
0.0524997
0.0501128
0.0472863
0.0441194
0.0406437
0.0369491
0.0330422
0.029003
0.0248107
0.020538
0.0161361
0.0116774
0.00709154
0.00246243
-0.0972699
-0.0973436
-0.0973478
-0.0973737
-0.0974194
-0.0974815
-0.0975549
-0.0976356
-0.0977211
-0.0978092
-0.0978978
-0.0979848
-0.0980683
-0.0981463
-0.0982171
-0.0982788
-0.0983298
-0.0983687
-0.0983939
-0.0984043
-0.0983987
-0.0983765
-0.0983367
-0.098279
-0.0982029
-0.0981083
-0.0979951
-0.0978634
-0.0977136
-0.0975458
-0.09736
-0.097156
-0.096933
-0.0966896
-0.0964245
-0.0961363
-0.0958232
-0.0954834
-0.0951143
-0.094712
-0.0942703
-0.0937814
-0.0932372
-0.0926203
-0.0918995
-0.0910249
-0.0899293
-0.0885448
-0.0867765
-0.0845133
-0.0816425
-0.0780744
-0.0737418
-0.0685902
-0.0626137
-0.0558441
-0.048343
-0.0402171
-0.0315943
-0.0226311
-0.0135237
-0.00445867
0.00437792
0.0128165
0.0206893
0.0278673
0.0342283
0.0397019
0.0442341
0.0478175
0.050451
0.0521796
0.0530426
0.0531216
0.0524769
0.0512071
0.0493747
0.0470807
0.044377
0.0413575
0.0380557
0.034554
0.0308636
0.0270552
0.0231168
0.0191094
0.0149988
0.0108409
0.00658003
0.00227223
-0.0969433
-0.0971487
-0.0972395
-0.0973437
-0.0974425
-0.0975358
-0.0976284
-0.0977237
-0.0978213
-0.0979196
-0.0980168
-0.0981111
-0.0982005
-0.0982831
-0.0983573
-0.0984212
-0.0984734
-0.0985123
-0.0985365
-0.0985448
-0.098536
-0.0985096
-0.0984651
-0.0984019
-0.09832
-0.0982193
-0.0981
-0.0979627
-0.0978078
-0.0976358
-0.0974468
-0.0972407
-0.0970164
-0.0967719
-0.0965054
-0.096216
-0.0959026
-0.095564
-0.0951989
-0.0948051
-0.0943773
-0.0939075
-0.0933948
-0.0928184
-0.0921503
-0.0913249
-0.0902751
-0.0889145
-0.087155
-0.0848955
-0.0820276
-0.0784657
-0.0741385
-0.0690084
-0.063072
-0.0563681
-0.0489671
-0.0409773
-0.032535
-0.0237996
-0.0149527
-0.00618118
0.00233267
0.0104252
0.0179423
0.0247616
0.0307778
0.0359268
0.0401646
0.0434897
0.0459108
0.0474753
0.0482294
0.0482524
0.0476083
0.0463897
0.0446618
0.0425166
0.0400084
0.0372202
0.0341892
0.0309852
0.0276262
0.0241691
0.0206122
0.0170018
0.0133183
0.0096007
0.00581409
0.00199822
-0.0977754
-0.0977979
-0.0976967
-0.0976517
-0.0976623
-0.0977202
-0.0978081
-0.0979091
-0.0980123
-0.0981142
-0.0982129
-0.0983066
-0.0983937
-0.0984726
-0.0985418
-0.0985999
-0.0986457
-0.0986776
-0.0986944
-0.0986948
-0.098678
-0.0986434
-0.0985908
-0.0985201
-0.098431
-0.0983236
-0.0981981
-0.0980554
-0.0978963
-0.097721
-0.0975299
-0.0973225
-0.0970975
-0.0968525
-0.0965855
-0.0962986
-0.0959895
-0.0956562
-0.0952972
-0.0949108
-0.0944923
-0.0940301
-0.0935053
-0.092909
-0.0922034
-0.0913335
-0.0902271
-0.0888033
-0.0869697
-0.084631
-0.08169
-0.0780688
-0.0737096
-0.0685862
-0.0627032
-0.0561067
-0.0488754
-0.0411226
-0.0329869
-0.0246279
-0.0162177
-0.00793231
5.91418e-05
0.00760422
0.0145675
0.0208397
0.0263345
0.0309997
0.0348067
0.0377609
0.0398835
0.0412238
0.0418352
0.0417926
0.041163
0.0400297
0.0384589
0.03653
0.0342983
0.0318326
0.0291726
0.0263734
0.023458
0.0204684
0.0174117
0.0143191
0.0111838
0.00803035
0.00484205
0.0016438
-0.0964475
-0.0970948
-0.0972977
-0.0975545
-0.0977701
-0.0979334
-0.0980558
-0.0981568
-0.0982498
-0.0983381
-0.0984222
-0.0985009
-0.0985728
-0.0986369
-0.0986918
-0.0987364
-0.0987696
-0.0987901
-0.0987964
-0.0987871
-0.0987614
-0.0987187
-0.0986587
-0.0985813
-0.098486
-0.0983727
-0.0982423
-0.0980964
-0.0979352
-0.0977586
-0.0975668
-0.0973593
-0.097135
-0.0968909
-0.0966222
-0.0963255
-0.0960036
-0.0956547
-0.0952749
-0.0948597
-0.0944014
-0.0938891
-0.0933059
-0.092629
-0.0918207
-0.0908257
-0.0895741
-0.0879883
-0.085983
-0.0834747
-0.0803836
-0.0766469
-0.0722223
-0.0670976
-0.0612903
-0.0548553
-0.0478787
-0.0404779
-0.0327898
-0.0249698
-0.0171779
-0.0095743
-0.00230633
0.00449398
0.0107156
0.0162691
0.0210913
0.0251458
0.028422
0.0309337
0.0327131
0.0338097
0.0342813
0.0341953
0.0336185
0.032622
0.0312696
0.0296262
0.027745
0.0256796
0.0234697
0.0211556
0.018763
0.0163201
0.01384
0.011341
0.00882595
0.00630699
0.00378137
0.00126208
-0.101162
-0.0997818
-0.0991536
-0.0987203
-0.0984939
-0.0984047
-0.0983929
-0.0984173
-0.0984562
-0.0985018
-0.0985512
-0.0986009
-0.098649
-0.0986936
-0.0987328
-0.0987647
-0.0987878
-0.0987991
-0.0987965
-0.0987796
-0.0987478
-0.0987007
-0.0986382
-0.0985593
-0.0984632
-0.0983487
-0.0982141
-0.0980604
-0.0978898
-0.0977022
-0.0974964
-0.0972705
-0.0970223
-0.0967488
-0.0964464
-0.0961123
-0.0957442
-0.0953384
-0.0948894
-0.0943898
-0.0938293
-0.0931939
-0.0924629
-0.0916086
-0.0905924
-0.0893636
-0.0878593
-0.0860108
-0.0837458
-0.0809964
-0.0777036
-0.0738251
-0.0693379
-0.0642458
-0.0585801
-0.0524039
-0.0458062
-0.0389019
-0.0318217
-0.0247091
-0.017706
-0.0109525
-0.00457068
0.0013351
0.00668331
0.0114095
0.0154755
0.0188625
0.0215759
0.0236361
0.0250816
0.0259585
0.0263236
0.0262343
0.025753
0.0249373
0.0238461
0.0225296
0.0210371
0.0194074
0.0176786
0.0158775
0.0140313
0.0121557
0.0102687
0.00837712
0.00649198
0.004614
0.00274991
0.000898021
-0.095318
-0.0964067
-0.0972447
-0.0978568
-0.0981737
-0.0982923
-0.0983267
-0.09834
-0.0983558
-0.0983859
-0.0984251
-0.098466
-0.0985067
-0.0985458
-0.0985815
-0.0986117
-0.0986354
-0.0986525
-0.0986576
-0.0986454
-0.0986146
-0.0985648
-0.098496
-0.0984087
-0.0983014
-0.0981713
-0.0980168
-0.0978378
-0.0976343
-0.0974056
-0.0971499
-0.0968648
-0.0965471
-0.0961931
-0.0957982
-0.0953577
-0.0948667
-0.0943197
-0.0937094
-0.0930265
-0.0922582
-0.0913882
-0.0903951
-0.0892521
-0.0879239
-0.0863674
-0.0845319
-0.0823632
-0.079807
-0.0768139
-0.0733429
-0.069369
-0.0648884
-0.0599221
-0.0545139
-0.0487329
-0.0426666
-0.0364222
-0.0301149
-0.0238671
-0.0177942
-0.012007
-0.00659836
-0.00164863
0.00278808
0.00667201
0.00998757
0.0127296
0.0149145
0.0165643
0.0177188
0.018417
0.0187114
0.0186476
0.0182823
0.0176603
0.0168353
0.0158443
0.0147328
0.0135261
0.0122609
0.0109512
0.00962559
0.00828798
0.00696131
0.00564079
0.00434615
0.00306606
0.00181854
0.000585498
-0.118002
-0.103078
-0.101151
-0.0996747
-0.0987598
-0.0983312
-0.0981567
-0.0980943
-0.0980749
-0.0980779
-0.098116
-0.0981779
-0.0982427
-0.0983031
-0.0983575
-0.0984044
-0.098441
-0.0984637
-0.0984673
-0.0984468
-0.0983994
-0.0983247
-0.0982235
-0.0980957
-0.0979387
-0.0977493
-0.0975246
-0.0972627
-0.096962
-0.0966208
-0.0962371
-0.0958087
-0.0953321
-0.0948033
-0.0942176
-0.0935699
-0.0928547
-0.0920656
-0.0911952
-0.0902341
-0.0891698
-0.0879865
-0.086663
-0.0851731
-0.0834873
-0.0815727
-0.0793932
-0.0769119
-0.0740944
-0.070912
-0.0673458
-0.0633912
-0.05906
-0.0543825
-0.0494058
-0.0441937
-0.0388231
-0.0333835
-0.0279687
-0.0226752
-0.0175916
-0.0127997
-0.00836548
-0.00434617
-0.000774872
0.00232755
0.00495966
0.00712384
0.00884048
0.0101307
0.0110328
0.0115793
0.0118174
0.0117831
0.0115272
0.0110842
0.0105029
0.00980932
0.00904561
0.0082257
0.00738442
0.00652363
0.00567341
0.0048249
0.00400671
0.00320066
0.00243703
0.00168889
0.000989683
0.000299943
-0.0855505
-0.0920105
-0.0945184
-0.0953605
-0.0958068
-0.0962073
-0.0965776
-0.0968886
-0.0971575
-0.0973917
-0.097593
-0.0977638
-0.0979073
-0.098027
-0.0981253
-0.0982017
-0.0982531
-0.0982747
-0.0982615
-0.098209
-0.098114
-0.0979751
-0.0977917
-0.0975631
-0.0972877
-0.0969635
-0.0965884
-0.0961608
-0.0956791
-0.0951421
-0.094547
-0.0938903
-0.0931683
-0.0923776
-0.0915146
-0.0905748
-0.0895536
-0.0884452
-0.087243
-0.0859388
-0.0845224
-0.082981
-0.0812992
-0.0794589
-0.0774406
-0.0752231
-0.0727846
-0.0701043
-0.0671645
-0.0639531
-0.0604661
-0.0567097
-0.0527017
-0.0484723
-0.0440632
-0.0395268
-0.0349244
-0.0303263
-0.0258058
-0.0214371
-0.0172882
-0.0134203
-0.00987941
-0.0067004
-0.00390021
-0.00148769
0.000542563
0.00219776
0.00349922
0.00446832
0.00514132
0.0055481
0.00573133
0.00572127
0.00556218
0.00528043
0.00491839
0.00449382
0.00404411
0.00357447
0.00311656
0.00266175
0.00223929
0.00182801
0.00146079
0.00110532
0.000803012
0.000507288
0.000270363
2.63471e-05
-0.0796054
-0.0873829
-0.0913656
-0.0927908
-0.0932253
-0.093562
-0.0940591
-0.0946736
-0.0952918
-0.0958392
-0.096293
-0.0966618
-0.0969637
-0.0972132
-0.0974172
-0.0975759
-0.0976851
-0.0977385
-0.0977301
-0.0976548
-0.0975094
-0.0972919
-0.0970019
-0.0966394
-0.0962049
-0.0956987
-0.0951208
-0.0944713
-0.0937504
-0.0929576
-0.0920923
-0.0911529
-0.0901378
-0.0890453
-0.0878732
-0.0866189
-0.0852792
-0.0838502
-0.0823274
-0.0807053
-0.0789773
-0.0771359
-0.0751718
-0.0730751
-0.0708347
-0.0684388
-0.0658753
-0.0631336
-0.0602065
-0.0570911
-0.0537904
-0.0503149
-0.0466834
-0.0429241
-0.0390747
-0.0351814
-0.0312953
-0.0274699
-0.0237596
-0.0202184
-0.016896
-0.0138351
-0.011067
-0.00861315
-0.00648302
-0.00467669
-0.00318052
-0.00197826
-0.00104647
-0.00036204
0.000108055
0.000393806
0.000534483
0.000559243
0.000504499
0.000389818
0.000245634
8.23134e-05
-7.22508e-05
-0.000217923
-0.000330418
-0.00042386
-0.000474694
-0.000511229
-0.0005021
-0.000488626
-0.00042269
-0.000367195
-0.000251508
-0.000171038
-0.0693978
-0.0765894
-0.0819329
-0.0854204
-0.0875615
-0.089015
-0.0902291
-0.0913828
-0.0924883
-0.0935001
-0.0943807
-0.0951202
-0.0957291
-0.0962242
-0.0966189
-0.0969198
-0.0971271
-0.0972379
-0.0972483
-0.097155
-0.0969562
-0.096652
-0.0962435
-0.0957332
-0.095124
-0.0944193
-0.093622
-0.0927351
-0.0917612
-0.0907023
-0.0895603
-0.0883361
-0.0870302
-0.0856424
-0.0841721
-0.0826182
-0.0809793
-0.0792534
-0.0774382
-0.0755312
-0.0735294
-0.0714296
-0.0692283
-0.0669218
-0.0645066
-0.0619791
-0.0593365
-0.0565771
-0.0537006
-0.0507093
-0.0476094
-0.044412
-0.0411344
-0.0378019
-0.0344486
-0.0311161
-0.0278503
-0.0246972
-0.0216986
-0.01889
-0.0162983
-0.013944
-0.0118437
-0.0100126
-0.00845938
-0.00717857
-0.00614515
-0.00532622
-0.00469023
-0.00421312
-0.00387059
-0.00363739
-0.00347948
-0.0033674
-0.00327368
-0.00318689
-0.00309472
-0.00299647
-0.00287996
-0.00274757
-0.00258574
-0.00240538
-0.00219139
-0.00196506
-0.0017025
-0.0014401
-0.00113666
-0.000854708
-0.000519583
-0.000245117
-0.0641739
-0.0707964
-0.0762696
-0.0804884
-0.0835764
-0.085844
-0.0876325
-0.0891806
-0.0905963
-0.091897
-0.0930627
-0.094073
-0.0949213
-0.0956135
-0.0961595
-0.0965675
-0.0968409
-0.0969798
-0.0969822
-0.0968467
-0.0965728
-0.0961623
-0.0956185
-0.0949462
-0.0941508
-0.0932383
-0.0922146
-0.0910852
-0.0898556
-0.0885307
-0.0871145
-0.0856102
-0.08402
-0.0823454
-0.0805871
-0.0787454
-0.0768205
-0.0748125
-0.0727216
-0.0705481
-0.0682927
-0.0659565
-0.0635411
-0.0610487
-0.0584824
-0.0558461
-0.0531446
-0.0503833
-0.0475682
-0.0447058
-0.0418042
-0.0388733
-0.0359269
-0.0329851
-0.0300763
-0.0272391
-0.0245193
-0.0219634
-0.0196072
-0.0174683
-0.0155433
-0.0138183
-0.0122873
-0.0109626
-0.00986186
-0.00898295
-0.00829221
-0.00773461
-0.00726223
-0.00685451
-0.00650813
-0.00621846
-0.00596667
-0.00572759
-0.00547773
-0.00520624
-0.0049098
-0.00459593
-0.00426934
-0.00393825
-0.0036001
-0.00325938
-0.00290756
-0.00255229
-0.00218042
-0.00180928
-0.00141503
-0.00103615
-0.000620048
-0.000258677
-0.0596647
-0.0659389
-0.0714039
-0.0759637
-0.0796252
-0.0825216
-0.0848631
-0.0868497
-0.0886139
-0.0902144
-0.0916587
-0.0929335
-0.0940252
-0.0949286
-0.0956459
-0.0961818
-0.0965402
-0.0967227
-0.0967295
-0.0965609
-0.096219
-0.095708
-0.0950341
-0.0942049
-0.0932284
-0.0921131
-0.0908678
-0.0895009
-0.0880209
-0.0864357
-0.084752
-0.0829753
-0.0811097
-0.0791581
-0.0771229
-0.0750058
-0.0728085
-0.0705333
-0.0681829
-0.0657608
-0.0632715
-0.0607205
-0.0581143
-0.0554603
-0.0527676
-0.0500469
-0.0473102
-0.0445702
-0.0418397
-0.0391294
-0.0364485
-0.033805
-0.0312074
-0.0286661
-0.0261974
-0.0238286
-0.0216042
-0.0195761
-0.0177841
-0.0162328
-0.0148811
-0.0136708
-0.0125687
-0.0115864
-0.0107555
-0.0100894
-0.0095635
-0.00911348
-0.00867375
-0.00821952
-0.00776456
-0.00733106
-0.00692873
-0.00655261
-0.00619138
-0.00583379
-0.00546919
-0.00509384
-0.00470788
-0.0043161
-0.00392
-0.00352289
-0.00312224
-0.00272101
-0.00231373
-0.00190626
-0.00148877
-0.00107748
-0.000647027
-0.000252858
-0.0560919
-0.0621645
-0.0676119
-0.0723562
-0.0763743
-0.0797198
-0.0825145
-0.0849037
-0.0870083
-0.0889001
-0.0906051
-0.0921208
-0.0934343
-0.0945343
-0.0954149
-0.0960753
-0.0965164
-0.096739
-0.0967441
-0.0965338
-0.0961126
-0.0954884
-0.0946719
-0.0936747
-0.0925082
-0.0911836
-0.0897122
-0.0881055
-0.0863747
-0.0845304
-0.0825821
-0.0805376
-0.0784033
-0.0761841
-0.073884
-0.0715065
-0.069055
-0.0665341
-0.063949
-0.0613069
-0.0586164
-0.0558881
-0.0531338
-0.0503661
-0.0475984
-0.0448458
-0.0421268
-0.0394623
-0.0368711
-0.034366
-0.0319536
-0.0296368
-0.0274171
-0.0252943
-0.0232673
-0.0213401
-0.0195437
-0.0179292
-0.0165464
-0.0154035
-0.0144365
-0.013562
-0.0127305
-0.0119423
-0.0112154
-0.0105616
-0.0100016
-0.00951564
-0.00905922
-0.00861065
-0.00817833
-0.00775062
-0.00731998
-0.00688505
-0.00644638
-0.00600672
-0.00557123
-0.00514496
-0.0047291
-0.00432155
-0.00392036
-0.00352345
-0.00312666
-0.00272835
-0.00232508
-0.00191776
-0.00150265
-0.00108506
-0.00065905
-0.000257044
-0.0532239
-0.0591947
-0.0646359
-0.0694816
-0.0737115
-0.0773581
-0.0804981
-0.0832306
-0.0856488
-0.0878191
-0.0897742
-0.0915194
-0.0930444
-0.0943342
-0.0953767
-0.0961638
-0.0966915
-0.0969582
-0.0969641
-0.0967119
-0.0962081
-0.0954646
-0.0944984
-0.0933272
-0.091967
-0.0904326
-0.0887383
-0.0868985
-0.0849274
-0.0828385
-0.080644
-0.0783545
-0.0759787
-0.0735238
-0.0709955
-0.0683995
-0.0657413
-0.0630276
-0.0602665
-0.0574683
-0.0546463
-0.0518163
-0.0489964
-0.0462049
-0.0434577
-0.0407678
-0.0381568
-0.0356499
-0.0332665
-0.0310141
-0.0288901
-0.0268865
-0.0249989
-0.0232224
-0.0215559
-0.0200013
-0.018557
-0.0172512
-0.0161065
-0.0151123
-0.014244
-0.0134693
-0.0127632
-0.0121237
-0.0115588
-0.0110364
-0.0104946
-0.00990867
-0.0092983
-0.00871099
-0.00816599
-0.00766994
-0.00722052
-0.00679975
-0.00638996
-0.00598158
-0.00557143
-0.00516008
-0.00474939
-0.00434234
-0.00393877
-0.00353745
-0.00313643
-0.00273435
-0.00232905
-0.00191956
-0.00150432
-0.001086
-0.000668512
-0.000253572
-0.0508683
-0.0568175
-0.0622648
-0.067166
-0.0715214
-0.0753692
-0.0787695
-0.0817899
-0.0844942
-0.0869327
-0.0891347
-0.0911075
-0.0928422
-0.094322
-0.0955288
-0.096448
-0.0970691
-0.0973867
-0.0973999
-0.0971122
-0.0965323
-0.095675
-0.0945634
-0.093222
-0.0916741
-0.0899412
-0.0880434
-0.0859998
-0.083828
-0.0815441
-0.0791623
-0.0766947
-0.0741511
-0.0715401
-0.0688686
-0.0661435
-0.0633718
-0.0605614
-0.057722
-0.0548658
-0.0520082
-0.0491683
-0.0463678
-0.0436309
-0.0409771
-0.0384223
-0.0359887
-0.0336934
-0.0315415
-0.0295259
-0.0276316
-0.0258372
-0.0241269
-0.0225064
-0.0210041
-0.0196559
-0.0184916
-0.017508
-0.0166602
-0.0158267
-0.014937
-0.0139922
-0.0130513
-0.0122072
-0.0114806
-0.0108629
-0.0103141
-0.00978607
-0.00926024
-0.00873959
-0.0082347
-0.00775866
-0.00730691
-0.00686976
-0.00644001
-0.00601437
-0.00559263
-0.00517572
-0.00476306
-0.00435418
-0.00394848
-0.0035448
-0.00314156
-0.00273738
-0.00233086
-0.00192072
-0.001506
-0.00108988
-0.000677738
-0.000251087
-0.0493653
-0.0552827
-0.0606986
-0.0656046
-0.0700254
-0.0740018
-0.0775838
-0.0808204
-0.0837539
-0.0864187
-0.0888348
-0.0910064
-0.0929241
-0.0945695
-0.0959208
-0.0969572
-0.0976624
-0.0980262
-0.0980457
-0.0977262
-0.0970808
-0.0961287
-0.0948919
-0.0933982
-0.0916798
-0.0897692
-0.0876965
-0.0854882
-0.083167
-0.0807515
-0.0782571
-0.0756957
-0.0730768
-0.0704079
-0.0676952
-0.0649447
-0.0621624
-0.0593553
-0.0565323
-0.0537045
-0.0508866
-0.0480969
-0.0453581
-0.0426981
-0.0401479
-0.037742
-0.0355035
-0.0334408
-0.0315437
-0.0297822
-0.0281131
-0.026493
-0.0248763
-0.0232523
-0.0216476
-0.0201189
-0.0187309
-0.0175286
-0.0164863
-0.0155612
-0.0146928
-0.0138591
-0.0130599
-0.0123142
-0.0116412
-0.0110324
-0.0104564
-0.00989217
-0.00933558
-0.00879525
-0.00827993
-0.00779227
-0.00732953
-0.00688543
-0.00645321
-0.00602807
-0.00560756
-0.00519091
-0.00477798
-0.00436842
-0.00396148
-0.00355607
-0.00315097
-0.00274508
-0.00233734
-0.00192672
-0.00151268
-0.00109788
-0.000685187
-0.000251359
-0.0484672
-0.0544039
-0.0598222
-0.0647486
-0.069223
-0.0732885
-0.0769894
-0.0803694
-0.0834657
-0.0863008
-0.0888827
-0.0912075
-0.0932613
-0.0950243
-0.096474
-0.0975891
-0.0983529
-0.098755
-0.0987935
-0.0984752
-0.0978158
-0.0968385
-0.0955723
-0.0940491
-0.092302
-0.0903639
-0.0882655
-0.0860344
-0.0836943
-0.0812649
-0.078762
-0.0761979
-0.0735823
-0.0709225
-0.0682246
-0.065494
-0.0627361
-0.0599571
-0.0571643
-0.0543673
-0.0515784
-0.0488132
-0.0460909
-0.0434342
-0.0408683
-0.0384175
-0.0361011
-0.0339294
-0.031901
-0.0300033
-0.0282203
-0.0264984
-0.0248224
-0.0231923
-0.0216314
-0.0201825
-0.018882
-0.0177426
-0.0167372
-0.0158042
-0.0148991
-0.0140134
-0.0131663
-0.0123868
-0.0116868
-0.0110538
-0.0104634
-0.00989562
-0.00934445
-0.00881265
-0.00830501
-0.00782213
-0.00736034
-0.0069141
-0.00647855
-0.00605055
-0.00562844
-0.00521134
-0.00479854
-0.00438924
-0.00398246
-0.00357701
-0.00317169
-0.00276543
-0.0023574
-0.00194698
-0.00153376
-0.00111813
-0.000699295
-0.000257755
)
;

boundaryField
{
    fixedWalls
    {
        type            zeroGradient;
    }
    inflowWall
    {
        type            zeroGradient;
    }
    outflowWall
    {
        type            fixedValue;
        value           uniform 0;
    }
    frontAndBack
    {
        type            empty;
    }
}


// ************************************************************************* //
