/*--------------------------------*- C++ -*----------------------------------*\
| =========                 |                                                 |
| \\      /  F ield         | OpenFOAM: The Open Source CFD Toolbox           |
|  \\    /   O peration     | Version:  2306                                  |
|   \\  /    A nd           | Website:  www.openfoam.com                      |
|    \\/     M anipulation  |                                                 |
\*---------------------------------------------------------------------------*/
FoamFile
{
    version     2.0;
    format      ascii;
    arch        "LSB;label=32;scalar=64";
    class       surfaceScalarField;
    location    "0.53";
    object      phi;
}
// * * * * * * * * * * * * * * * * * * * * * * * * * * * * * * * * * * * * * //

dimensions      [0 3 -1 0 0 0 0];

oriented        oriented;

internalField   nonuniform List<scalar> 
94400
(
7.3514e-06
2.6486e-06
5.10551e-06
2.24589e-06
3.71254e-06
1.39297e-06
2.84757e-06
8.6497e-07
2.29182e-06
5.55758e-07
1.91981e-06
3.72004e-07
1.65897e-06
2.60842e-07
1.46775e-06
1.91221e-07
1.32225e-06
1.45501e-07
1.20826e-06
1.13987e-07
1.11694e-06
9.13167e-08
1.04253e-06
7.442e-08
9.81068e-07
6.14573e-08
9.29791e-07
5.12764e-08
8.86667e-07
4.31243e-08
8.50176e-07
3.64906e-08
8.19159e-07
3.10178e-08
7.9271e-07
2.64488e-08
7.70115e-07
2.25944e-08
7.50803e-07
1.93126e-08
7.34308e-07
1.64948e-08
7.20251e-07
1.40567e-08
7.0832e-07
1.19316e-08
6.98253e-07
1.00663e-08
6.89836e-07
8.41771e-09
6.82886e-07
6.95009e-09
6.77252e-07
5.63372e-09
6.72808e-07
4.4433e-09
6.69452e-07
3.35693e-09
6.67096e-07
2.35525e-09
6.65676e-07
1.42066e-09
6.65139e-07
5.36666e-10
6.65452e-07
-3.12813e-10
6.66596e-07
-1.14419e-09
6.68571e-07
-1.97515e-09
6.71397e-07
-2.82593e-09
6.75118e-07
-3.72105e-09
6.7981e-07
-4.69224e-09
6.85593e-07
-5.78309e-09
6.92651e-07
-7.05756e-09
7.01267e-07
-8.61634e-09
7.11898e-07
-1.06308e-08
7.25318e-07
-1.34194e-08
7.42945e-07
-1.76273e-08
7.67612e-07
-2.46668e-08
8.05391e-07
-3.77795e-08
8.70033e-07
-6.46413e-08
9.94563e-07
-1.2453e-07
1.26462e-06
-2.70053e-07
-6.37099e-07
1.90172e-06
1.01831e-05
2.46545e-06
9.21641e-06
3.21262e-06
7.94626e-06
2.66312e-06
6.79703e-06
2.01419e-06
5.86109e-06
1.4917e-06
5.12472e-06
1.10838e-06
4.54841e-06
8.37158e-07
4.09392e-06
6.45707e-07
3.73105e-06
5.08371e-07
3.43744e-06
4.076e-07
3.19686e-06
3.31888e-07
2.99757e-06
2.73714e-07
2.83092e-06
2.28102e-07
2.69051e-06
1.91694e-07
2.57145e-06
1.62177e-07
2.47003e-06
1.37919e-07
2.3833e-06
1.17744e-07
2.30896e-06
1.00785e-07
2.24516e-06
8.63954e-08
2.19039e-06
7.40817e-08
2.14343e-06
6.34623e-08
2.10324e-06
5.42375e-08
2.06901e-06
4.61689e-08
2.04001e-06
3.90641e-08
2.01566e-06
3.27658e-08
1.99547e-06
2.71433e-08
1.97902e-06
2.20868e-08
1.96596e-06
1.75019e-08
1.95601e-06
1.33065e-08
1.94894e-06
9.4272e-09
1.94456e-06
5.79635e-09
1.94275e-06
2.3498e-09
1.94341e-06
-9.76117e-10
1.94651e-06
-4.24772e-09
1.95208e-06
-7.538e-09
1.96018e-06
-1.09322e-08
1.971e-06
-1.4536e-08
1.98479e-06
-1.8488e-08
2.00199e-06
-2.29808e-08
2.02323e-06
-2.82956e-08
2.04948e-06
-3.48648e-08
2.08223e-06
-4.33872e-08
2.12386e-06
-5.50482e-08
2.17819e-06
-7.19544e-08
2.25153e-06
-9.8003e-08
2.35433e-06
-1.40583e-07
2.50345e-06
-2.13759e-07
2.72328e-06
-3.44361e-07
3.03556e-06
-5.82341e-07
-9.95617e-07
3.39408e-06
1.05345e-05
1.93093e-06
1.04951e-05
3.25202e-06
9.90361e-06
3.25464e-06
9.09169e-06
2.82611e-06
8.26037e-06
2.32302e-06
7.49872e-06
1.87002e-06
6.83568e-06
1.5002e-06
6.27166e-06
1.20972e-06
5.79603e-06
9.84006e-07
5.39544e-06
8.08192e-07
5.05726e-06
6.70062e-07
4.77068e-06
5.60294e-07
4.5268e-06
4.71988e-07
4.31841e-06
4.00085e-07
4.13972e-06
3.40866e-07
3.98606e-06
2.91577e-07
3.85365e-06
2.50154e-07
3.7394e-06
2.15035e-07
3.64078e-06
1.85018e-07
3.55569e-06
1.59171e-07
3.48239e-06
1.36761e-07
3.41943e-06
1.17202e-07
3.36557e-06
1.00024e-07
3.31979e-06
8.48431e-08
3.28122e-06
7.13405e-08
3.24911e-06
5.92505e-08
3.22285e-06
4.83471e-08
3.20191e-06
3.84351e-08
3.18588e-06
2.93425e-08
3.17439e-06
2.09143e-08
3.16718e-06
1.30066e-08
3.16405e-06
5.48145e-09
3.16487e-06
-1.79938e-09
3.16961e-06
-8.98117e-09
3.17829e-06
-1.6225e-08
3.19108e-06
-2.37197e-08
3.20824e-06
-3.16992e-08
3.23023e-06
-4.04686e-08
3.25769e-06
-5.04454e-08
3.29162e-06
-6.2225e-08
3.33344e-06
-7.66907e-08
3.38525e-06
-9.51972e-08
3.45009e-06
-1.19885e-07
3.53236e-06
-1.54218e-07
3.63825e-06
-2.03893e-07
3.77593e-06
-2.78268e-07
3.95454e-06
-3.92364e-07
4.17926e-06
-5.69085e-07
4.43623e-06
-8.3931e-07
-1.22562e-06
4.66623e-06
1.04653e-05
1.46561e-06
1.07771e-05
2.94026e-06
1.06758e-05
3.35591e-06
1.02725e-05
3.22939e-06
9.71463e-06
2.88093e-06
9.108e-06
2.47665e-06
8.51515e-06
2.09306e-06
7.9669e-06
1.75797e-06
7.47487e-06
1.47604e-06
7.0404e-06
1.24266e-06
6.66001e-06
1.05045e-06
6.32836e-06
8.91941e-07
6.0397e-06
7.6065e-07
5.78856e-06
6.51225e-07
5.57004e-06
5.59392e-07
5.37984e-06
4.81774e-07
5.21428e-06
4.15711e-07
5.07021e-06
3.59103e-07
4.94495e-06
3.10286e-07
4.83619e-06
2.67928e-07
4.74199e-06
2.30961e-07
4.66068e-06
1.98514e-07
4.59083e-06
1.69875e-07
4.53122e-06
1.44452e-07
4.4808e-06
1.21753e-07
4.4387e-06
1.01357e-07
4.40414e-06
8.29046e-08
4.37649e-06
6.60813e-08
4.35523e-06
5.06077e-08
4.33991e-06
3.62293e-08
4.33021e-06
2.27083e-08
4.32588e-06
9.8141e-09
4.32677e-06
-2.68526e-09
4.33282e-06
-1.50347e-08
4.3441e-06
-2.75059e-08
4.3608e-06
-4.04161e-08
4.38325e-06
-5.41544e-08
4.412e-06
-6.92207e-08
4.44784e-06
-8.6283e-08
4.49188e-06
-1.06265e-07
4.54568e-06
-1.30484e-07
4.61133e-06
-1.60855e-07
4.69166e-06
-2.00215e-07
4.79024e-06
-2.52799e-07
4.91126e-06
-3.24913e-07
5.05874e-06
-4.25744e-07
5.23438e-06
-5.68001e-07
5.43284e-06
-7.67549e-07
5.63338e-06
-1.03985e-06
-1.38682e-06
5.79458e-06
1.0342e-05
1.12359e-06
1.07373e-05
2.54503e-06
1.09003e-05
3.19284e-06
1.08068e-05
3.32292e-06
1.05226e-05
3.16516e-06
1.01251e-05
2.87415e-06
9.67674e-06
2.54137e-06
9.21983e-06
2.21487e-06
8.77955e-06
1.91633e-06
8.36916e-06
1.65305e-06
7.99442e-06
1.42518e-06
7.65664e-06
1.22972e-06
7.3547e-06
1.06259e-06
7.08628e-06
9.19652e-07
6.84854e-06
7.97127e-07
6.63858e-06
6.91738e-07
6.45357e-06
6.00718e-07
6.29091e-06
5.21762e-07
6.14824e-06
4.52958e-07
6.02344e-06
3.92725e-07
5.91465e-06
3.39753e-07
5.82022e-06
2.92948e-07
5.7387e-06
2.51395e-07
5.66883e-06
2.14321e-07
5.60951e-06
1.81068e-07
5.5598e-06
1.51069e-07
5.51888e-06
1.23831e-07
5.48604e-06
9.89176e-08
5.46071e-06
7.59366e-08
5.44241e-06
5.45273e-08
5.43077e-06
3.43492e-08
5.42551e-06
1.50704e-08
5.42647e-06
-3.6449e-09
5.43359e-06
-2.21516e-08
5.44693e-06
-4.08417e-08
5.46668e-06
-6.01691e-08
5.49321e-06
-8.06827e-08
5.52706e-06
-1.03073e-07
5.56902e-06
-1.28239e-07
5.62013e-06
-1.57382e-07
5.68179e-06
-1.92143e-07
5.75573e-06
-2.34794e-07
5.84402e-06
-2.885e-07
5.94887e-06
-3.57652e-07
6.07219e-06
-4.48233e-07
6.21452e-06
-5.68071e-07
6.37312e-06
-7.26606e-07
6.53907e-06
-9.33498e-07
6.69406e-06
-1.19484e-06
-1.50501e-06
6.81226e-06
1.02416e-05
8.8195e-07
1.06171e-05
2.1696e-06
1.08951e-05
2.91479e-06
1.09957e-05
3.22237e-06
1.09248e-05
3.23599e-06
1.07228e-05
3.07614e-06
1.04357e-05
2.82856e-06
1.01024e-05
2.54811e-06
9.75201e-06
2.26673e-06
9.40386e-06
2.0012e-06
9.07001e-06
1.75903e-06
8.75727e-06
1.54246e-06
8.46894e-06
1.35092e-06
8.20611e-06
1.18249e-06
7.96847e-06
1.03476e-06
7.75497e-06
9.05238e-07
7.56413e-06
7.91551e-07
7.39432e-06
6.91575e-07
7.24385e-06
6.03432e-07
7.11108e-06
5.25495e-07
6.99447e-06
4.56356e-07
6.89261e-06
3.94808e-07
6.8042e-06
3.39805e-07
6.72808e-06
2.90448e-07
6.66319e-06
2.45951e-07
6.60863e-06
2.05628e-07
6.5636e-06
1.68868e-07
6.52739e-06
1.35125e-07
6.49942e-06
1.03903e-07
6.47922e-06
7.47358e-08
6.46638e-06
4.71841e-08
6.46064e-06
2.08141e-08
6.46181e-06
-4.81394e-09
6.46982e-06
-3.01641e-08
6.48472e-06
-5.57464e-08
6.5067e-06
-8.21445e-08
6.53607e-06
-1.10052e-07
6.57332e-06
-1.40323e-07
6.61912e-06
-1.74035e-07
6.67432e-06
-2.12583e-07
6.73997e-06
-2.57793e-07
6.81725e-06
-3.12074e-07
6.90734e-06
-3.78592e-07
7.01114e-06
-4.61455e-07
7.12873e-06
-5.65819e-07
7.25844e-06
-6.97785e-07
7.39562e-06
-8.63785e-07
7.53119e-06
-1.06906e-06
7.65114e-06
-1.3148e-06
-1.59361e-06
7.73974e-06
1.01727e-05
7.09202e-07
1.0498e-05
1.84435e-06
1.08084e-05
2.60442e-06
1.10139e-05
3.0169e-06
1.10882e-05
3.16167e-06
1.10418e-05
3.12254e-06
1.09008e-05
2.96957e-06
1.06941e-05
2.75472e-06
1.04476e-05
2.51326e-06
1.01814e-05
2.26742e-06
9.91022e-06
2.03021e-06
9.64419e-06
1.80849e-06
9.38983e-06
1.60527e-06
9.15104e-06
1.42127e-06
8.92991e-06
1.2559e-06
8.72725e-06
1.1079e-06
8.54308e-06
9.75722e-07
8.3769e-06
8.57757e-07
8.2279e-06
7.52429e-07
8.09512e-06
6.58273e-07
7.97753e-06
5.73953e-07
7.87407e-06
4.98268e-07
7.78373e-06
4.30143e-07
7.70556e-06
3.6862e-07
7.63866e-06
3.12844e-07
7.58225e-06
2.62046e-07
7.53558e-06
2.15534e-07
7.49803e-06
1.72675e-07
7.46905e-06
1.32881e-07
7.44819e-06
9.56006e-08
7.43507e-06
6.03022e-08
7.42942e-06
2.64604e-08
7.43107e-06
-6.45985e-09
7.43993e-06
-3.90222e-08
7.45602e-06
-7.18415e-08
7.47949e-06
-1.05613e-07
7.51058e-06
-1.41147e-07
7.54968e-06
-1.79418e-07
7.59727e-06
-2.21623e-07
7.65394e-06
-2.69255e-07
7.72034e-06
-3.24193e-07
7.79707e-06
-3.88803e-07
7.88451e-06
-4.66034e-07
7.98252e-06
-5.5947e-07
8.08998e-06
-6.7328e-07
8.20414e-06
-8.11937e-07
8.31989e-06
-9.79536e-07
8.42935e-06
-1.17852e-06
8.52233e-06
-1.40778e-06
-1.66035e-06
8.58907e-06
1.01274e-05
5.81814e-07
1.04004e-05
1.57136e-06
1.07032e-05
2.30156e-06
1.09558e-05
2.76438e-06
1.1119e-05
2.99843e-06
1.11845e-05
3.057e-06
1.11619e-05
2.99223e-06
1.10685e-05
2.84808e-06
1.09236e-05
2.65815e-06
1.07447e-05
2.44633e-06
1.05462e-05
2.22869e-06
1.03394e-05
2.01535e-06
1.01324e-05
1.81231e-06
9.93091e-06
1.62272e-06
9.7389e-06
1.44791e-06
9.55875e-06
1.28805e-06
9.39181e-06
1.14266e-06
9.23872e-06
1.01085e-06
9.09958e-06
8.91565e-07
8.97417e-06
7.83685e-07
8.86204e-06
6.86091e-07
8.76259e-06
5.97711e-07
8.6752e-06
5.17539e-07
8.59918e-06
4.44638e-07
8.53388e-06
3.78145e-07
8.47866e-06
3.17263e-07
8.43294e-06
2.61252e-07
8.3962e-06
2.09423e-07
8.36795e-06
1.61127e-07
8.34781e-06
1.15743e-07
8.33544e-06
7.2668e-08
8.3306e-06
3.12995e-08
8.33312e-06
-8.97685e-09
8.3429e-06
-4.8807e-08
8.35995e-06
-8.88905e-08
8.38435e-06
-1.30008e-07
8.41625e-06
-1.73053e-07
8.45591e-06
-2.19075e-07
8.50362e-06
-2.69327e-07
8.55968e-06
-3.25318e-07
8.62436e-06
-3.88878e-07
8.69777e-06
-4.62211e-07
8.77966e-06
-5.47922e-07
8.86919e-06
-6.48998e-07
8.96457e-06
-7.68661e-07
9.06268e-06
-9.10047e-07
9.15874e-06
-1.07559e-06
9.24632e-06
-1.26611e-06
9.31812e-06
-1.47958e-06
-1.71005e-06
9.36782e-06
1.00972e-05
4.84623e-07
1.03247e-05
1.34385e-06
1.06037e-05
2.02255e-06
1.08693e-05
2.49874e-06
1.10812e-05
2.7866e-06
1.12211e-05
2.91706e-06
1.12871e-05
2.92622e-06
1.12868e-05
2.84841e-06
1.12322e-05
2.71275e-06
1.11365e-05
2.54208e-06
1.10119e-05
2.35328e-06
1.08689e-05
2.15827e-06
1.07162e-05
1.96503e-06
1.05603e-05
1.77866e-06
1.0406e-05
1.60217e-06
1.02569e-05
1.43713e-06
1.01154e-05
1.28414e-06
9.98313e-06
1.14316e-06
9.86092e-06
1.01377e-06
9.74929e-06
8.95321e-07
9.64836e-06
7.87014e-07
9.55806e-06
6.88013e-07
9.47813e-06
5.97465e-07
9.40824e-06
5.1453e-07
9.34799e-06
4.38398e-07
9.29696e-06
3.6829e-07
9.25475e-06
3.03466e-07
9.22095e-06
2.43216e-07
9.19522e-06
1.86858e-07
9.17724e-06
1.33727e-07
9.16674e-06
8.31703e-08
9.16351e-06
3.453e-08
9.1674e-06
-1.28671e-08
9.17832e-06
-5.97277e-08
9.19624e-06
-1.06812e-07
9.22119e-06
-1.54956e-07
9.25324e-06
-2.05103e-07
9.29249e-06
-2.58333e-07
9.33907e-06
-3.159e-07
9.39302e-06
-3.79269e-07
9.45429e-06
-4.5015e-07
9.5226e-06
-5.30516e-07
9.59727e-06
-6.22592e-07
9.67705e-06
-7.28781e-07
9.75989e-06
-8.51498e-07
9.8427e-06
-9.92858e-07
9.9213e-06
-1.1542e-06
9.99061e-06
-1.33542e-06
1.00453e-05
-1.5343e-06
-1.74595e-06
1.00812e-05
1.00765e-05
4.08153e-07
1.02668e-05
1.15354e-06
1.05172e-05
1.7721e-06
1.07777e-05
2.2383e-06
1.10114e-05
2.55283e-06
1.11969e-05
2.73157e-06
1.13253e-05
2.79785e-06
1.13968e-05
2.77691e-06
1.14172e-05
2.69231e-06
1.13951e-05
2.56419e-06
1.13397e-05
2.4087e-06
1.12598e-05
2.23816e-06
1.11632e-05
2.06161e-06
1.10565e-05
1.88541e-06
1.09448e-05
1.71384e-06
1.08323e-05
1.54965e-06
1.0722e-05
1.39443e-06
1.06162e-05
1.24899e-06
1.05164e-05
1.11355e-06
1.04238e-05
9.87986e-07
1.03389e-05
8.71907e-07
1.02621e-05
7.6477e-07
1.01936e-05
6.65939e-07
1.01334e-05
5.74732e-07
1.00814e-05
4.9044e-07
1.00373e-05
4.12355e-07
1.0001e-05
3.39772e-07
9.97224e-06
2.71996e-07
9.95076e-06
2.08341e-07
9.93636e-06
1.48129e-07
9.92885e-06
9.06792e-08
9.92807e-06
3.53027e-08
9.93392e-06
-1.87098e-08
9.94629e-06
-7.21019e-08
9.96515e-06
-1.25668e-07
9.99047e-06
-1.80274e-07
1.00222e-05
-2.36877e-07
1.00605e-05
-2.96551e-07
1.01051e-05
-3.60511e-07
1.01559e-05
-4.30133e-07
1.02128e-05
-5.06968e-07
1.0275e-05
-5.92735e-07
1.03417e-05
-6.89285e-07
1.04114e-05
-7.98506e-07
1.04821e-05
-9.22165e-07
1.05508e-05
-1.06164e-06
1.06142e-05
-1.21756e-06
1.06682e-05
-1.38938e-06
1.07088e-05
-1.57495e-06
-1.77034e-06
1.07332e-05
1.00617e-05
3.46404e-07
1.02223e-05
9.93025e-07
1.04446e-05
1.54975e-06
1.06909e-05
1.992e-06
1.09301e-05
2.31369e-06
1.11405e-05
2.52115e-06
1.131e-05
2.62833e-06
1.14341e-05
2.65277e-06
1.15139e-05
2.61258e-06
1.15536e-05
2.5245e-06
1.15593e-05
2.40294e-06
1.15378e-05
2.25969e-06
1.14954e-05
2.10398e-06
1.1438e-05
1.9428e-06
1.13706e-05
1.78124e-06
1.12974e-05
1.62289e-06
1.12217e-05
1.47016e-06
1.11461e-05
1.32459e-06
1.10726e-05
1.18701e-06
1.10028e-05
1.05782e-06
1.09377e-05
9.37034e-07
1.0878e-05
8.24445e-07
1.08242e-05
7.19671e-07
1.07768e-05
6.22224e-07
1.07357e-05
5.3154e-07
1.0701e-05
4.47015e-07
1.06728e-05
3.68013e-07
1.06509e-05
2.93886e-07
1.06352e-05
2.23974e-07
1.06258e-05
1.57607e-07
1.06223e-05
9.41047e-08
1.06249e-05
3.27697e-08
1.06333e-05
-2.71204e-08
1.06475e-05
-8.63227e-08
1.06675e-05
-1.45642e-07
1.06931e-05
-2.05945e-07
1.07244e-05
-2.68177e-07
1.07613e-05
-3.33376e-07
1.08034e-05
-4.02688e-07
1.08507e-05
-4.77375e-07
1.09025e-05
-5.58813e-07
1.09583e-05
-6.4847e-07
1.10168e-05
-7.47857e-07
1.10768e-05
-8.58434e-07
1.11361e-05
-9.81467e-07
1.11922e-05
-1.11782e-06
1.12424e-05
-1.26768e-06
1.12833e-05
-1.43032e-06
1.13121e-05
-1.60379e-06
-1.78493e-06
1.13267e-05
1.00509e-05
2.9546e-07
1.01877e-05
8.563e-07
1.03845e-05
1.35294e-06
1.0613e-05
1.76347e-06
1.08478e-05
2.0789e-06
1.10691e-05
2.29983e-06
1.12638e-05
2.43367e-06
1.14246e-05
2.49198e-06
1.15491e-05
2.48801e-06
1.16385e-05
2.43508e-06
1.16961e-05
2.34541e-06
1.17261e-05
2.22963e-06
1.17336e-05
2.09656e-06
1.17231e-05
1.95325e-06
1.16992e-05
1.80517e-06
1.16656e-05
1.65643e-06
1.16258e-05
1.51003e-06
1.15823e-05
1.36804e-06
1.15375e-05
1.23185e-06
1.1493e-05
1.10229e-06
1.14502e-05
9.79783e-07
1.14102e-05
8.64439e-07
1.13738e-05
7.56147e-07
1.13414e-05
6.54628e-07
1.13134e-05
5.59488e-07
1.12902e-05
4.70248e-07
1.12718e-05
3.86371e-07
1.12584e-05
3.07276e-07
1.12501e-05
2.32353e-07
1.12467e-05
1.60966e-07
1.12484e-05
9.24546e-08
1.1255e-05
2.61354e-08
1.12666e-05
-3.87055e-08
1.12831e-05
-1.02817e-07
1.13044e-05
-1.66992e-07
1.13305e-05
-2.32076e-07
1.13614e-05
-2.9898e-07
1.13967e-05
-3.68683e-07
1.14362e-05
-4.42246e-07
1.14796e-05
-5.20803e-07
1.15264e-05
-6.05554e-07
1.15756e-05
-6.97734e-07
1.16264e-05
-7.98562e-07
1.16771e-05
-9.09152e-07
1.1726e-05
-1.0304e-06
1.1771e-05
-1.1628e-06
1.18096e-05
-1.30631e-06
1.18394e-05
-1.46012e-06
1.18582e-05
-1.62255e-06
-1.79104e-06
1.18643e-05
1.00428e-05
2.52668e-07
1.01605e-05
7.3864e-07
1.03349e-05
1.17851e-06
1.05449e-05
1.55349e-06
1.077e-05
1.85375e-06
1.09931e-05
2.07672e-06
1.12013e-05
2.22548e-06
1.13862e-05
2.30711e-06
1.15433e-05
2.33094e-06
1.16712e-05
2.30712e-06
1.1771e-05
2.24563e-06
1.1845e-05
2.15563e-06
1.18964e-05
2.04511e-06
1.19289e-05
1.92082e-06
1.19458e-05
1.78822e-06
1.19506e-05
1.65165e-06
1.19462e-05
1.51442e-06
1.19352e-05
1.379e-06
1.19199e-05
1.24717e-06
1.19021e-05
1.12012e-06
1.18833e-05
9.98631e-07
1.18646e-05
8.83097e-07
1.18471e-05
7.73659e-07
1.18315e-05
6.70252e-07
1.18183e-05
5.72651e-07
1.1808e-05
4.80518e-07
1.1801e-05
3.93426e-07
1.17974e-05
3.1088e-07
1.17974e-05
2.32338e-07
1.18011e-05
1.57214e-07
1.18087e-05
8.48874e-08
1.18201e-05
1.47063e-08
1.18354e-05
-5.40158e-08
1.18546e-05
-1.22001e-07
1.18776e-05
-1.90011e-07
1.19044e-05
-2.58853e-07
1.19348e-05
-3.29385e-07
1.19687e-05
-4.02515e-07
1.20056e-05
-4.79206e-07
1.20453e-05
-5.60463e-07
1.2087e-05
-6.47318e-07
1.21301e-05
-7.408e-07
1.21734e-05
-8.41881e-07
1.22157e-05
-9.51404e-07
1.22553e-05
-1.06999e-06
1.22904e-05
-1.1979e-06
1.2319e-05
-1.33494e-06
1.23392e-05
-1.48032e-06
1.23492e-05
-1.6326e-06
-1.7897e-06
1.23479e-05
1.00365e-05
2.16168e-07
1.01388e-05
6.3636e-07
1.02939e-05
1.02334e-06
1.04861e-05
1.36131e-06
1.06991e-05
1.64075e-06
1.09184e-05
1.85744e-06
1.11321e-05
2.01178e-06
1.13315e-05
2.10767e-06
1.15111e-05
2.15136e-06
1.16679e-05
2.15033e-06
1.18011e-05
2.11245e-06
1.19114e-05
2.04533e-06
1.20005e-05
1.95597e-06
1.20709e-05
1.8505e-06
1.21249e-05
1.73413e-06
1.21654e-05
1.61115e-06
1.21949e-05
1.485e-06
1.22155e-05
1.35836e-06
1.22294e-05
1.23324e-06
1.22384e-05
1.11114e-06
1.2244e-05
9.93055e-07
1.22474e-05
8.79654e-07
1.22498e-05
7.71291e-07
1.2252e-05
6.6809e-07
1.22546e-05
5.69994e-07
1.22583e-05
4.768e-07
1.22636e-05
3.88195e-07
1.22707e-05
3.03782e-07
1.22799e-05
2.23093e-07
1.22915e-05
1.45606e-07
1.23056e-05
7.07558e-08
1.23224e-05
-2.06576e-09
1.23419e-05
-7.35023e-08
1.23641e-05
-1.44234e-07
1.23891e-05
-2.14978e-07
1.24167e-05
-2.86488e-07
1.24469e-05
-3.59557e-07
1.24794e-05
-4.35015e-07
1.25139e-05
-5.1372e-07
1.255e-05
-5.96553e-07
1.25871e-05
-6.84394e-07
1.26244e-05
-7.78089e-07
1.26609e-05
-8.78409e-07
1.26955e-05
-9.85987e-07
1.27267e-05
-1.10124e-06
1.27531e-05
-1.22428e-06
1.2773e-05
-1.35484e-06
1.27849e-05
-1.49217e-06
1.27873e-05
-1.63505e-06
-1.78177e-06
1.27794e-05
1.00316e-05
1.84607e-07
1.01214e-05
5.46565e-07
1.02601e-05
8.84576e-07
1.04359e-05
1.18552e-06
1.0636e-05
1.44068e-06
1.08482e-05
1.64523e-06
1.1062e-05
1.79794e-06
1.12691e-05
1.90057e-06
1.14634e-05
1.95706e-06
1.1641e-05
1.97274e-06
1.17998e-05
1.95363e-06
1.19393e-05
1.90588e-06
1.20598e-05
1.83541e-06
1.21627e-05
1.7476e-06
1.22496e-05
1.64723e-06
1.23224e-05
1.53836e-06
1.23831e-05
1.42436e-06
1.24335e-05
1.30797e-06
1.24754e-05
1.19132e-06
1.25105e-05
1.07606e-06
1.25401e-05
9.63395e-07
1.25656e-05
8.54148e-07
1.25881e-05
7.48854e-07
1.26084e-05
6.47799e-07
1.26273e-05
5.51068e-07
1.26455e-05
4.58586e-07
1.26636e-05
3.70149e-07
1.26819e-05
2.85453e-07
1.27009e-05
2.04113e-07
1.27208e-05
1.25678e-07
1.27419e-05
4.96414e-08
1.27644e-05
-2.4547e-08
1.27884e-05
-9.74786e-08
1.28139e-05
-1.69781e-07
1.2841e-05
-2.42114e-07
1.28697e-05
-3.15172e-07
1.28998e-05
-3.89674e-07
1.29312e-05
-4.66365e-07
1.29635e-05
-5.46003e-07
1.29963e-05
-6.2935e-07
1.3029e-05
-7.17145e-07
1.3061e-05
-8.10084e-07
1.30914e-05
-9.08772e-07
1.31191e-05
-1.01368e-06
1.31429e-05
-1.12508e-06
1.31616e-05
-1.24298e-06
1.31738e-05
-1.36707e-06
1.31784e-05
-1.49669e-06
1.31741e-05
-1.63079e-06
-1.76795e-06
1.31603e-05
1.00276e-05
1.56975e-07
1.01072e-05
4.66957e-07
1.02321e-05
7.59703e-07
1.03932e-05
1.0244e-06
1.05806e-05
1.25335e-06
1.07841e-05
1.44169e-06
1.09947e-05
1.58734e-06
1.12046e-05
1.69065e-06
1.14078e-05
1.75391e-06
1.15997e-05
1.78078e-06
1.17776e-05
1.77573e-06
1.19399e-05
1.74361e-06
1.2086e-05
1.68928e-06
1.22163e-05
1.61736e-06
1.23315e-05
1.53206e-06
1.24327e-05
1.43709e-06
1.25215e-05
1.33563e-06
1.25991e-05
1.23033e-06
1.26671e-05
1.12334e-06
1.27268e-05
1.01637e-06
1.27795e-05
9.1071e-07
1.28263e-05
8.07305e-07
1.28683e-05
7.06812e-07
1.29065e-05
6.09637e-07
1.29416e-05
5.15978e-07
1.29743e-05
4.25868e-07
1.30053e-05
3.39201e-07
1.3035e-05
2.55761e-07
1.30638e-05
1.7524e-07
1.30922e-05
9.72588e-08
1.31205e-05
2.13767e-08
1.31489e-05
-5.28959e-08
1.31775e-05
-1.26091e-07
1.32065e-05
-1.98776e-07
1.32359e-05
-2.7155e-07
1.32658e-05
-3.45037e-07
1.3296e-05
-4.19881e-07
1.33264e-05
-4.96741e-07
1.33566e-05
-5.76278e-07
1.33864e-05
-6.59141e-07
1.34152e-05
-7.45951e-07
1.34424e-05
-8.3727e-07
1.34672e-05
-9.33571e-07
1.34887e-05
-1.0352e-06
1.3506e-05
-1.14231e-06
1.35179e-05
-1.25486e-06
1.35233e-05
-1.37254e-06
1.35214e-05
-1.49474e-06
1.35111e-05
-1.62056e-06
-1.74883e-06
1.3492e-05
1.00245e-05
1.32493e-07
1.00958e-05
3.95687e-07
1.02089e-05
6.46526e-07
1.03572e-05
8.76165e-07
1.05326e-05
1.07797e-06
1.07269e-05
1.24738e-06
1.09323e-05
1.38193e-06
1.11418e-05
1.48115e-06
1.13495e-05
1.54617e-06
1.15509e-05
1.57939e-06
1.17426e-05
1.58406e-06
1.19223e-05
1.56391e-06
1.20887e-05
1.52283e-06
1.22414e-05
1.46468e-06
1.23804e-05
1.39307e-06
1.25062e-05
1.31129e-06
1.26196e-05
1.22223e-06
1.27215e-05
1.12836e-06
1.28131e-05
1.03175e-06
1.28955e-05
9.34062e-07
1.29695e-05
8.3662e-07
1.30364e-05
7.4042e-07
1.30971e-05
6.46182e-07
1.31523e-05
5.5439e-07
1.3203e-05
4.65325e-07
1.32497e-05
3.79101e-07
1.32932e-05
2.95691e-07
1.3334e-05
2.14954e-07
1.33726e-05
1.36655e-07
1.34094e-05
6.04808e-08
1.34447e-05
-1.39443e-08
1.34789e-05
-8.70476e-08
1.35121e-05
-1.59299e-07
1.35445e-05
-2.31203e-07
1.35763e-05
-3.03291e-07
1.36073e-05
-3.76118e-07
1.36377e-05
-4.50252e-07
1.36672e-05
-5.26266e-07
1.36957e-05
-6.04728e-07
1.37227e-05
-6.86189e-07
1.37479e-05
-7.71158e-07
1.37708e-05
-8.60089e-07
1.37905e-05
-9.53344e-07
1.38065e-05
-1.05117e-06
1.38178e-05
-1.15365e-06
1.38237e-05
-1.2607e-06
1.38231e-05
-1.37199e-06
1.38154e-05
-1.48701e-06
1.37998e-05
-1.60496e-06
-1.72488e-06
1.37758e-05
1.00219e-05
1.10548e-07
1.00864e-05
3.3124e-07
1.01898e-05
5.4314e-07
1.03269e-05
7.39066e-07
1.04914e-05
9.13425e-07
1.06767e-05
1.06212e-06
1.08759e-05
1.18267e-06
1.1083e-05
1.27409e-06
1.12924e-05
1.33681e-06
1.14994e-05
1.3723e-06
1.17007e-05
1.38285e-06
1.18933e-05
1.37125e-06
1.20756e-05
1.34059e-06
1.22463e-05
1.29398e-06
1.24049e-05
1.23445e-06
1.25513e-05
1.16483e-06
1.26859e-05
1.08767e-06
1.28091e-05
1.00518e-06
1.29216e-05
9.1927e-07
1.30241e-05
8.3151e-07
1.31176e-05
7.43167e-07
1.32027e-05
6.55229e-07
1.32805e-05
5.68433e-07
1.33516e-05
4.83296e-07
1.34168e-05
4.00147e-07
1.34767e-05
3.19153e-07
1.35321e-05
2.40345e-07
1.35834e-05
1.63641e-07
1.36312e-05
8.88668e-08
1.36759e-05
1.57694e-08
1.37179e-05
-5.59667e-08
1.37576e-05
-1.26708e-07
1.37951e-05
-1.96863e-07
1.38308e-05
-2.66873e-07
1.38647e-05
-3.37203e-07
1.38969e-05
-4.08336e-07
1.39274e-05
-4.80766e-07
1.39562e-05
-5.54984e-07
1.39829e-05
-6.31472e-07
1.40074e-05
-7.10688e-07
1.40293e-05
-7.93048e-07
1.40481e-05
-8.7891e-07
1.40633e-05
-9.68546e-07
1.40743e-05
-1.06213e-06
1.40803e-05
-1.15968e-06
1.40807e-05
-1.26108e-06
1.40747e-05
-1.36604e-06
1.40618e-05
-1.47407e-06
1.40413e-05
-1.5845e-06
-1.6965e-06
1.4013e-05
1.00199e-05
9.06437e-08
1.00788e-05
2.72358e-07
1.0174e-05
4.4788e-07
1.03017e-05
6.11449e-07
1.04566e-05
7.58445e-07
1.06334e-05
8.85335e-07
1.08263e-05
9.89773e-07
1.10298e-05
1.07061e-06
1.12388e-05
1.12779e-06
1.1449e-05
1.16217e-06
1.16565e-05
1.1753e-06
1.18585e-05
1.16924e-06
1.20528e-05
1.14636e-06
1.22376e-05
1.10912e-06
1.2412e-05
1.06001e-06
1.25755e-05
1.00137e-06
1.27278e-05
9.35379e-07
1.2869e-05
8.63966e-07
1.29995e-05
7.8881e-07
1.31196e-05
7.1133e-07
1.32301e-05
6.32687e-07
1.33316e-05
5.53806e-07
1.34246e-05
4.75394e-07
1.35099e-05
3.97962e-07
1.35882e-05
3.21851e-07
1.36601e-05
2.47252e-07
1.37262e-05
1.74233e-07
1.37871e-05
1.02753e-07
1.38433e-05
3.26853e-08
1.38952e-05
-3.61735e-08
1.39434e-05
-1.04085e-07
1.3988e-05
-1.7136e-07
1.40295e-05
-2.38347e-07
1.40681e-05
-3.05427e-07
1.41039e-05
-3.73e-07
1.4137e-05
-4.4148e-07
1.41675e-05
-5.11288e-07
1.41954e-05
-5.82839e-07
1.42204e-05
-6.56535e-07
1.42425e-05
-7.3275e-07
1.42613e-05
-8.11818e-07
1.42764e-05
-8.94014e-07
1.42874e-05
-9.79538e-07
1.42937e-05
-1.06849e-06
1.42949e-05
-1.16087e-06
1.42904e-05
-1.25653e-06
1.42795e-05
-1.35518e-06
1.42618e-05
-1.4564e-06
1.42369e-05
-1.55959e-06
-1.66404e-06
1.42045e-05
1.00183e-05
7.23716e-08
1.00727e-05
2.17973e-07
1.01613e-05
3.59281e-07
1.02809e-05
4.9176e-07
1.04277e-05
6.11688e-07
1.05969e-05
7.16122e-07
1.07837e-05
8.02995e-07
1.09832e-05
8.7115e-07
1.11907e-05
9.20281e-07
1.1402e-05
9.50824e-07
1.16135e-05
9.63806e-07
1.1822e-05
9.60701e-07
1.20251e-05
9.4327e-07
1.22208e-05
9.13428e-07
1.24077e-05
8.73128e-07
1.25848e-05
8.24271e-07
1.27515e-05
7.68639e-07
1.29077e-05
7.07845e-07
1.30532e-05
6.43312e-07
1.31882e-05
5.76261e-07
1.33132e-05
5.07704e-07
1.34286e-05
4.3846e-07
1.35348e-05
3.69164e-07
1.36325e-05
3.00284e-07
1.37222e-05
2.32142e-07
1.38045e-05
1.64928e-07
1.388e-05
9.87221e-08
1.39493e-05
3.3508e-08
1.40127e-05
-3.081e-08
1.4071e-05
-9.43943e-08
1.41243e-05
-1.57462e-07
1.41733e-05
-2.20273e-07
1.4218e-05
-2.83124e-07
1.42589e-05
-3.46335e-07
1.42962e-05
-4.10246e-07
1.43299e-05
-4.75206e-07
1.43602e-05
-5.41566e-07
1.4387e-05
-6.0967e-07
1.44103e-05
-6.79846e-07
1.443e-05
-7.52393e-07
1.44457e-05
-8.27572e-07
1.44573e-05
-9.05588e-07
1.44643e-05
-9.86577e-07
1.44664e-05
-1.07059e-06
1.44632e-05
-1.15759e-06
1.44541e-05
-1.24742e-06
1.44387e-05
-1.33981e-06
1.44166e-05
-1.43435e-06
1.43876e-05
-1.53054e-06
-1.62776e-06
1.43513e-05
1.0017e-05
5.53856e-08
1.00678e-05
1.6716e-07
1.0151e-05
2.76036e-07
1.02643e-05
3.78543e-07
1.04042e-05
4.71787e-07
1.05669e-05
5.53423e-07
1.07481e-05
6.21735e-07
1.09436e-05
6.75681e-07
1.1149e-05
7.14859e-07
1.13604e-05
7.39443e-07
1.15741e-05
7.50085e-07
1.1787e-05
7.478e-07
1.19964e-05
7.33862e-07
1.22002e-05
7.09693e-07
1.23965e-05
6.76778e-07
1.25842e-05
6.36583e-07
1.27623e-05
5.90506e-07
1.29303e-05
5.39828e-07
1.3088e-05
4.85694e-07
1.32351e-05
4.29092e-07
1.3372e-05
3.70855e-07
1.34988e-05
3.11659e-07
1.36159e-05
2.52036e-07
1.37238e-05
1.9238e-07
1.3823e-05
1.32965e-07
1.3914e-05
7.39561e-08
1.39973e-05
1.54251e-08
1.40734e-05
-4.2637e-08
1.41429e-05
-1.00307e-07
1.42062e-05
-1.5772e-07
1.42638e-05
-2.15054e-07
1.43161e-05
-2.72529e-07
1.43633e-05
-3.30391e-07
1.44059e-05
-3.88908e-07
1.4444e-05
-4.48361e-07
1.44779e-05
-5.09038e-07
1.45075e-05
-5.71226e-07
1.45331e-05
-6.35204e-07
1.45544e-05
-7.0123e-07
1.45716e-05
-7.69537e-07
1.45843e-05
-8.4032e-07
1.45925e-05
-9.13722e-07
1.45957e-05
-9.89829e-07
1.45938e-05
-1.06865e-06
1.45863e-05
-1.15011e-06
1.45729e-05
-1.23405e-06
1.45533e-05
-1.32021e-06
1.45272e-05
-1.40822e-06
1.44943e-05
-1.49762e-06
-1.58789e-06
1.44544e-05
1.0016e-05
3.93857e-08
1.00641e-05
1.19106e-07
1.01431e-05
1.96961e-07
1.02512e-05
2.7043e-07
1.03856e-05
3.37386e-07
1.0543e-05
3.96073e-07
1.07196e-05
4.45169e-07
1.09114e-05
4.83827e-07
1.11146e-05
5.11656e-07
1.13254e-05
5.28686e-07
1.15402e-05
5.35302e-07
1.17558e-05
5.3217e-07
1.19695e-05
5.20158e-07
1.21789e-05
5.00262e-07
1.23822e-05
4.7354e-07
1.25777e-05
4.41052e-07
1.27644e-05
4.03818e-07
1.29414e-05
3.62785e-07
1.31083e-05
3.18801e-07
1.32648e-05
2.72606e-07
1.34108e-05
2.24826e-07
1.35465e-05
1.75971e-07
1.36721e-05
1.26439e-07
1.3788e-05
7.65291e-08
1.38945e-05
2.64434e-08
1.39921e-05
-2.36983e-08
1.40814e-05
-7.38497e-08
1.41628e-05
-1.24028e-07
1.42368e-05
-1.74303e-07
1.43039e-05
-2.24792e-07
1.43645e-05
-2.75645e-07
1.4419e-05
-3.27046e-07
1.44678e-05
-3.79197e-07
1.45112e-05
-4.32318e-07
1.45495e-05
-4.86637e-07
1.45828e-05
-5.42385e-07
1.46114e-05
-5.9979e-07
1.46353e-05
-6.59069e-07
1.46544e-05
-7.20418e-07
1.46689e-05
-7.8401e-07
1.46786e-05
-8.49981e-07
1.46833e-05
-9.18421e-07
1.46828e-05
-9.89368e-07
1.4677e-05
-1.0628e-06
1.46655e-05
-1.13861e-06
1.4648e-05
-1.21663e-06
1.46244e-05
-1.29662e-06
1.45945e-05
-1.37822e-06
1.45579e-05
-1.46104e-06
-1.54459e-06
1.45146e-05
1.00153e-05
2.41054e-08
1.00613e-05
7.30756e-08
1.01373e-05
1.20966e-07
1.02416e-05
1.66124e-07
1.03719e-05
2.07142e-07
1.05251e-05
2.42841e-07
1.06979e-05
2.72318e-07
1.08868e-05
2.94969e-07
1.1088e-05
3.10486e-07
1.12978e-05
3.18836e-07
1.15129e-05
3.20218e-07
1.173e-05
3.15022e-07
1.19464e-05
3.03778e-07
1.21596e-05
2.87106e-07
1.23675e-05
2.65673e-07
1.25683e-05
2.40155e-07
1.2761e-05
2.11206e-07
1.29443e-05
1.79436e-07
1.31177e-05
1.45393e-07
1.32808e-05
1.09554e-07
1.34333e-05
7.2319e-08
1.35752e-05
3.40139e-08
1.37068e-05
-5.11185e-09
1.38282e-05
-4.48782e-08
1.39398e-05
-8.51693e-08
1.4042e-05
-1.25927e-07
1.41353e-05
-1.67145e-07
1.42202e-05
-2.08859e-07
1.4297e-05
-2.51144e-07
1.43663e-05
-2.94107e-07
1.44286e-05
-3.37878e-07
1.44841e-05
-3.82609e-07
1.45334e-05
-4.28465e-07
1.45767e-05
-4.75623e-07
1.46143e-05
-5.24261e-07
1.46465e-05
-5.74558e-07
1.46734e-05
-6.26687e-07
1.46951e-05
-6.80807e-07
1.47118e-05
-7.37061e-07
1.47233e-05
-7.95564e-07
1.47297e-05
-8.56399e-07
1.47309e-05
-9.1961e-07
1.47267e-05
-9.85195e-07
1.4717e-05
-1.0531e-06
1.47016e-05
-1.12319e-06
1.46803e-05
-1.19531e-06
1.46529e-05
-1.2692e-06
1.46192e-05
-1.34454e-06
1.45791e-05
-1.42096e-06
-1.49803e-06
1.45326e-05
1.00148e-05
9.3007e-09
1.00595e-05
2.83892e-08
1.01334e-05
4.70309e-08
1.02352e-05
6.4385e-08
1.03626e-05
7.9732e-08
1.0513e-05
9.24633e-08
1.06832e-05
1.02104e-07
1.08698e-05
1.08324e-07
1.10694e-05
1.10942e-07
1.12783e-05
1.09909e-07
1.14932e-05
1.05294e-07
1.1711e-05
9.7259e-08
1.19287e-05
8.60379e-08
1.21439e-05
7.19099e-08
1.23544e-05
5.51782e-08
1.25584e-05
3.61508e-08
1.27545e-05
1.5125e-08
1.29415e-05
-7.62478e-09
1.31188e-05
-3.18556e-08
1.32857e-05
-5.73608e-08
1.3442e-05
-8.39736e-08
1.35876e-05
-1.11567e-07
1.37225e-05
-1.40053e-07
1.3847e-05
-1.6938e-07
1.39614e-05
-1.99533e-07
1.4066e-05
-2.30525e-07
1.41612e-05
-2.62399e-07
1.42476e-05
-2.95218e-07
1.43255e-05
-3.2907e-07
1.43955e-05
-3.64057e-07
1.44579e-05
-4.00294e-07
1.45132e-05
-4.37908e-07
1.45618e-05
-4.77029e-07
1.46039e-05
-5.17795e-07
1.464e-05
-5.60339e-07
1.46702e-05
-6.04791e-07
1.46948e-05
-6.51274e-07
1.47139e-05
-6.99895e-07
1.47276e-05
-7.50743e-07
1.47359e-05
-8.03885e-07
1.47389e-05
-8.59357e-07
1.47364e-05
-9.17159e-07
1.47285e-05
-9.77253e-07
1.47149e-05
-1.03955e-06
1.46957e-05
-1.10392e-06
1.46705e-05
-1.17017e-06
1.46394e-05
-1.23806e-06
1.46021e-05
-1.30728e-06
1.45587e-05
-1.3775e-06
-1.44833e-06
1.4509e-05
1.00146e-05
-5.25766e-09
1.00585e-05
-1.55974e-08
1.01314e-05