/*--------------------------------*- C++ -*----------------------------------*\
| =========                 |                                                 |
| \\      /  F ield         | OpenFOAM: The Open Source CFD Toolbox           |
|  \\    /   O peration     | Version:  2306                                  |
|   \\  /    A nd           | Website:  www.openfoam.com                      |
|    \\/     M anipulation  |                                                 |
\*---------------------------------------------------------------------------*/
FoamFile
{
    version     2.0;
    format      ascii;
    arch        "LSB;label=32;scalar=64";
    class       surfaceScalarField;
    location    "0.53";
    object      phi;
}
// * * * * * * * * * * * * * * * * * * * * * * * * * * * * * * * * * * * * * //

dimensions      [0 3 -1 0 0 0 0];

oriented        oriented;

internalField   nonuniform List<scalar> 
890
(
8.50913e-05
1.49087e-05
7.26699e-05
1.24214e-05
6.71595e-05
5.51044e-06
6.78794e-05
-7.19958e-07
-9.59009e-06
7.74695e-05
0.0001097
5.20867e-06
0.000117543
4.57874e-06
0.000122405
6.48557e-07
0.000126113
-4.42836e-06
-1.13754e-05
0.000127898
0.00011182
-6.61126e-06
0.000124952
-8.5534e-06
0.000133372
-7.77168e-06
0.000137101
-8.15734e-06
-1.04697e-05
0.000136196
0.000109059
-1.56698e-05
0.000115017
-1.4512e-05
0.000116578
-9.33298e-06
0.000114866
-6.44495e-06
-5.61202e-06
0.000110008
8.43302e-05
6.98182e-05
6.04852e-05
5.40403e-05
4.84283e-05
-1.60548e-06
1.60548e-06
-2.47505e-06
8.6957e-07
-1.75146e-06
-7.23589e-07
2.37126e-07
-1.98858e-06
2.90031e-06
-2.66319e-06
5.7306e-06
-2.83029e-06
8.35945e-06
-2.62885e-06
1.05827e-05
-2.22322e-06
1.23271e-05
-1.74446e-06
1.36059e-05
-1.27872e-06
1.44794e-05
-8.73526e-07
1.50274e-05
-5.48057e-07
1.53307e-05
-3.03312e-07
1.54611e-05
-1.30314e-07
1.5477e-05
-1.59288e-08
1.54235e-05
5.35397e-08
1.53329e-05
9.05676e-08
1.52276e-05
1.05248e-07
1.51222e-05
1.05451e-07
1.50251e-05
9.7065e-08
1.49409e-05
8.4259e-08
1.4871e-05
6.98409e-08
1.48154e-05
5.56002e-08
1.47728e-05
4.25876e-08
1.47415e-05
3.13357e-08
1.47195e-05
2.20283e-08
1.47048e-05
1.46261e-08
1.46959e-05
8.95889e-09
1.46911e-05
4.7897e-09
1.46892e-05
1.85895e-09
1.46893e-05
-8.73296e-11
1.46906e-05
-1.28004e-09
1.46925e-05
-1.92137e-09
1.46947e-05
-2.17516e-09
1.46969e-05
-2.17168e-09
1.46989e-05
-2.0114e-09
1.47006e-05
-1.76818e-09
1.47021e-05
-1.49357e-09
1.47034e-05
-1.22176e-09
1.47043e-05
-9.74052e-10
1.47051e-05
-7.63229e-10
1.47057e-05
-5.97555e-10
1.47062e-05
-4.85249e-10
1.47066e-05
-4.45381e-10
-5.0975e-10
-1.91012e-06
3.51559e-06
-1.45042e-06
4.09868e-07
1.66408e-06
-3.83809e-06
6.60143e-06
-6.92593e-06
1.23983e-05
-8.46002e-06
1.824e-05
-8.67206e-06
2.35907e-05
-7.97952e-06
2.81568e-05
-6.78932e-06
3.18309e-05
-5.41859e-06
3.46318e-05
-4.07964e-06
3.6653e-05
-2.89464e-06
3.80232e-05
-1.91834e-06
3.88801e-05
-1.16016e-06
3.93525e-05
-6.02727e-07
3.9552e-05
-2.1548e-07
3.95697e-05
3.59189e-08
3.94751e-05
1.85103e-07
3.932e-05
2.60398e-07
3.91404e-05
2.85073e-07
3.896e-05
2.77389e-07
3.87934e-05
2.50869e-07
3.86482e-05
2.15095e-07
3.85272e-05
1.76537e-07
3.84305e-05
1.39305e-07
3.83561e-05
1.05771e-07
3.8301e-05
7.70864e-08
3.82621e-05
5.35742e-08
3.8236e-05
3.50347e-08
3.82198e-05
2.09641e-08
3.8211e-05
1.07119e-08
3.82073e-05
3.58579e-09
3.82071e-05
-1.07227e-09
3.8209e-05
-3.8735e-09
3.82122e-05
-5.31751e-09
3.82158e-05
-5.81978e-09
3.82195e-05
-5.70865e-09
3.8223e-05
-5.23279e-09
3.82261e-05
-4.57238e-09
3.82287e-05
-3.85222e-09
3.82309e-05
-3.15463e-09
3.82326e-05
-2.53131e-09
3.82341e-05
-2.01415e-09
3.82352e-05
-1.62363e-09
3.82361e-05
-1.37831e-09
-1.31154e-09
5.10029e-09
3.51049e-06
3.86228e-06
-3.44731e-06
1.04089e-05
-1.03847e-05
1.80364e-05
-1.45535e-05
2.56837e-05
-1.61073e-05
3.27457e-05
-1.57341e-05
3.89013e-05
-1.41351e-05
4.40224e-05
-1.19104e-05
4.81086e-05
-9.50485e-06
5.1239e-05
-7.21004e-06
5.35357e-05
-5.19126e-06
5.51383e-05
-3.52099e-06
5.61874e-05
-2.20921e-06
5.68128e-05
-1.22817e-06
5.71282e-05
-5.30861e-07
5.72283e-05
-6.41819e-08
5.7187e-05
2.26405e-07
5.70619e-05
3.85438e-07
5.6895e-05
4.52031e-07
5.6715e-05
4.57345e-07
5.65408e-05
4.25059e-07
5.63835e-05
3.72437e-07
5.62485e-05
3.1152e-07
5.61376e-05
2.50255e-07
5.60498e-05
1.93498e-07
5.59831e-05
1.43858e-07
5.59343e-05
1.02383e-07
5.59002e-05
6.90854e-08
5.58778e-05
4.33509e-08
5.58643e-05
2.42235e-08
5.58573e-05
1.0612e-08
5.58548e-05
1.4324e-09
5.58553e-05
-4.35553e-09
5.58575e-05
-7.61007e-09
5.58608e-05
-9.06403e-09
5.58644e-05
-9.3083e-09
5.5868e-05
-8.79754e-09
5.58713e-05
-7.86756e-09
5.58742e-05
-6.75645e-09
5.58766e-05
-5.62542e-09
5.58787e-05
-4.57832e-09
5.58803e-05
-3.67886e-09
5.58817e-05
-2.96388e-09
5.58828e-05
-2.45058e-09
-2.1707e-09
5.9288e-06
-2.41831e-06
1.55384e-05
-1.30569e-05
2.58963e-05
-2.07426e-05
3.52479e-05
-2.39051e-05
4.31531e-05
-2.40125e-05
4.96171e-05
-2.21981e-05
5.47792e-05
-1.92972e-05
5.8815e-05
-1.59461e-05
6.19023e-05
-1.25922e-05
6.42073e-05
-9.51504e-06
6.58781e-05
-6.86204e-06
6.70437e-05
-4.68661e-06
6.7815e-05
-2.98053e-06
6.82861e-05
-1.69927e-06
6.85357e-05
-7.80453e-07
6.86287e-05
-1.57204e-07
6.86156e-05
2.39517e-07
6.85368e-05
4.64256e-07
6.84226e-05
5.66202e-07
6.82946e-05
5.85366e-07
6.81673e-05
5.52371e-07
6.80498e-05
4.89945e-07
6.79471e-05
4.14246e-07
6.78611e-05
3.36185e-07
6.7792e-05
2.62622e-07
6.77385e-05
1.97422e-07
6.76985e-05
1.4232e-07
6.767e-05
9.76146e-08
6.76506e-05
6.27002e-08
6.76384e-05
3.6459e-08
6.76315e-05
1.75445e-08
6.76283e-05
4.57972e-09
6.76277e-05
-3.78326e-09
6.76288e-05
-8.68112e-09
6.76308e-05
-1.10674e-08
6.76333e-05
-1.17452e-08
6.76358e-05
-1.13309e-08
6.76382e-05
-1.02849e-08
6.76404e-05
-8.93769e-09
6.76423e-05
-7.51625e-09
6.76439e-05
-6.16886e-09
6.76452e-05
-4.98696e-09
6.76462e-05
-4.02258e-09
6.76471e-05
-3.29622e-09
-2.83688e-09
2.23063e-05
-2.47246e-05
3.92439e-05
-2.99945e-05
5.06961e-05
-3.21948e-05
5.86463e-05
-3.18553e-05
6.40585e-05
-2.94247e-05
6.76558e-05
-2.57954e-05
7.0006e-05
-2.16474e-05
7.152e-05
-1.74601e-05
7.24849e-05
-1.35571e-05
7.30954e-05
-1.01256e-05
7.34789e-05
-7.24547e-06
7.37155e-05
-4.92319e-06
7.38547e-05
-3.11976e-06
7.39274e-05
-1.77194e-06
7.39536e-05
-8.06638e-07
7.39476e-05
-1.51292e-07
7.39193e-05
2.67879e-07
7.38774e-05
5.06178e-07
7.38285e-05
6.15027e-07
7.37779e-05
6.36023e-07
7.37291e-05
6.01174e-07
7.36846e-05
5.34445e-07
7.36458e-05
4.53045e-07
7.36132e-05
3.68714e-07
7.35869e-05
2.88923e-07
7.35664e-05
2.17943e-07
7.3551e-05
1.57752e-07
7.35398e-05
1.08756e-07
7.35322e-05
7.03614e-08
7.35272e-05
4.1401e-08
7.35243e-05
2.04405e-08
7.35229e-05
5.99859e-09
7.35225e-05
-3.37756e-09
7.35228e-05
-8.94221e-09
7.35234e-05
-1.17159e-08
7.35243e-05
-1.25872e-08
7.35252e-05
-1.22334e-08
7.35261e-05
-1.11622e-08
7.35269e-05
-9.73971e-09
7.35276e-05
-8.21857e-09
7.35282e-05
-6.76447e-09
7.35286e-05
-5.47984e-09
7.3529e-05
-4.423e-09
7.35294e-05
-3.61672e-09
-3.08798e-09
7.97963e-05
-2.70514e-05
8.32627e-05
-3.34609e-05
8.50582e-05
-3.39903e-05
8.53042e-05
-3.21012e-05
8.44811e-05
-2.86015e-05
8.29856e-05
-2.43e-05
8.11877e-05
-1.98495e-05
7.93798e-05
-1.56522e-05
7.77483e-05
-1.19255e-05
7.63859e-05
-8.76324e-06
7.53183e-05
-6.17785e-06
7.45282e-05
-4.13311e-06
7.39761e-05
-2.56762e-06
7.36142e-05
-1.41007e-06
7.33958e-05
-5.88257e-07
7.3281e-05
-3.64409e-08
7.32351e-05
3.13745e-07
7.32341e-05
5.07237e-07
7.32587e-05
5.90343e-07
7.32963e-05
5.9851e-07
7.33381e-05
5.59359e-07
7.33789e-05
4.9362e-07
7.34157e-05
4.16197e-07
7.34472e-05
3.37254e-07
7.34729e-05
2.63239e-07
7.3493e-05
1.97798e-07
7.35082e-05
1.42558e-07
7.35192e-05
9.77688e-08
7.35268e-05
6.27989e-08
7.35317e-05
3.65205e-08
7.35345e-05
1.7581e-08
7.35359e-05
4.60022e-09
7.35363e-05
-3.77256e-09
7.3536e-05
-8.67622e-09
7.35354e-05
-1.10655e-08
7.35345e-05
-1.17448e-08
7.35336e-05
-1.1331e-08
7.35328e-05
-1.02851e-08
7.3532e-05
-8.93788e-09
7.35313e-05
-7.51635e-09
7.35307e-05
-6.16888e-09
7.35302e-05
-4.98694e-09
7.35298e-05
-4.02253e-09
7.35295e-05
-3.29617e-09
-2.83683e-09
0.000122526
-2.16787e-05
0.000115897
-2.68325e-05
0.000108971
-2.7064e-05
0.00010184
-2.49706e-05
9.49685e-05
-2.17298e-05
8.87041e-05
-1.80356e-05
8.32505e-05
-1.4396e-05
7.87042e-05
-1.11059e-05
7.50679e-05
-8.28923e-06
7.2274e-05
-5.96936e-06
7.02137e-05
-4.11754e-06
6.87615e-05
-2.68096e-06
6.77926e-05
-1.59868e-06
6.71926e-05
-8.10088e-07
6.68633e-05
-2.58935e-07
6.6722e-05
1.04828e-07
6.67088e-05
3.26995e-07
6.67731e-05
4.42937e-07
6.68797e-05
4.83742e-07
6.70039e-05
4.74324e-07
6.71292e-05
4.33971e-07
6.72458e-05
3.77099e-07
6.7348e-05
3.14006e-07
6.74336e-05
2.51642e-07
6.75025e-05
1.9432e-07
6.75559e-05
1.44374e-07
6.75958e-05
1.02717e-07
6.76242e-05
6.93029e-08
6.76435e-05
4.34898e-08
6.76557e-05
2.4309e-08
6.76627e-05
1.06619e-08
6.76658e-05
1.45961e-09
6.76664e-05
-4.34195e-09
6.76653e-05
-7.6042e-09
6.76633e-05
-9.06206e-09
6.76609e-05
-9.30805e-09
6.76583e-05
-8.79787e-09
6.76559e-05
-7.86795e-09
6.76537e-05
-6.75671e-09
6.76518e-05
-5.62554e-09
6.76502e-05
-4.57833e-09
6.76489e-05
-3.67881e-09
6.76479e-05
-2.9638e-09
6.7647e-05
-2.45049e-09
-2.17063e-09
0.000129041
-1.45241e-05
0.000118859
-1.66506e-05
0.000107974
-1.61791e-05
9.73693e-05
-1.43656e-05
8.77152e-05
-1.20757e-05
7.94047e-05
-9.72506e-06
7.25613e-05
-7.5526e-06
6.71347e-05
-5.67923e-06
6.29799e-05
-4.13446e-06
5.99097e-05
-2.89908e-06
5.77277e-05
-1.93564e-06
5.62494e-05
-1.2026e-06
5.53109e-05
-6.60166e-07
5.47733e-05
-2.72513e-07
5.45218e-05
-7.47498e-09
5.44662e-05
1.6046e-07
5.45364e-05
2.56827e-07
5.46793e-05
3.00023e-07
5.48568e-05
3.0621e-07
5.50428e-05
2.88371e-07
5.52202e-05
2.56513e-07
5.53793e-05
2.18035e-07
5.55152e-05
1.78139e-07
5.56266e-05
1.4024e-07
5.57145e-05
1.06357e-07
5.57814e-05
7.74712e-08
5.58303e-05
5.38304e-08
5.58644e-05
3.52025e-08
5.58868e-05
2.10701e-08
5.59004e-05
1.07754e-08
5.59074e-05
3.62141e-09
5.59099e-05
-1.054e-09
5.59094e-05
-3.86516e-09
5.59072e-05
-5.31445e-09
5.59039e-05
-5.81917e-09
5.59003e-05
-5.70895e-09
5.58967e-05
-5.23326e-09
5.58935e-05
-4.57274e-09
5.58905e-05
-3.85241e-09
5.58881e-05
-3.15468e-09
5.5886e-05
-2.53128e-09
5.58844e-05
-2.01407e-09
5.5883e-05
-1.62355e-09
5.5882e-05
-1.37824e-09
-1.31148e-09
0.000101482
-5.9976e-06
9.09182e-05
-6.08709e-06
8.02128e-05
-5.47373e-06
7.0395e-05
-4.54775e-06
6.1935e-05
-3.61567e-06
5.49912e-05
-2.78127e-06
4.95141e-05
-2.07554e-06
4.53386e-05
-1.5037e-06
4.22576e-05
-1.0535e-06
4.00643e-05
-7.05725e-07
3.85704e-05
-4.41719e-07
3.76133e-05
-2.45551e-07
3.70571e-05
-1.0396e-07
3.67906e-05
-6.05461e-09
3.67253e-05
5.78549e-08
3.67906e-05
9.51554e-08
3.69345e-05
1.12988e-07
3.71177e-05
1.16801e-07
3.73127e-05
1.11188e-07
3.75012e-05
9.98608e-08
3.76721e-05
8.56434e-08
3.78195e-05
7.05741e-08
3.79417e-05
5.60339e-08
3.8039e-05
4.28733e-08
3.81138e-05
3.15356e-08
3.81691e-05
2.2169e-08
3.82083e-05
1.47223e-08
3.82344e-05
9.02139e-09
3.82507e-05
4.82781e-09
3.82596e-05
1.88045e-09
3.82633e-05
-7.63336e-11
3.82635e-05
-1.27516e-09
3.82615e-05
-1.9197e-09
3.82584e-05
-2.17497e-09
3.82548e-05
-2.172e-09
3.82511e-05
-2.01178e-09
3.82476e-05
-1.76844e-09
3.82445e-05
-1.4937e-09
3.82419e-05
-1.22178e-09
3.82397e-05
-9.74019e-10
3.82379e-05
-7.63175e-10
3.82365e-05
-5.97504e-10
3.82354e-05
-4.85213e-10
3.82344e-05
-4.4536e-10
-5.09733e-10
4.24307e-05
3.63436e-05
3.08698e-05
2.63221e-05
2.27064e-05
1.99251e-05
1.78496e-05
1.63459e-05
1.52924e-05
1.45867e-05
1.41449e-05
1.38994e-05
1.37954e-05
1.37894e-05
1.38472e-05
1.39424e-05
1.40554e-05
1.41722e-05
1.42834e-05
1.43832e-05
1.44689e-05
1.45394e-05
1.45955e-05
1.46384e-05
1.46699e-05
1.46921e-05
1.47068e-05
1.47158e-05
1.47206e-05
1.47225e-05
1.47224e-05
1.47212e-05
1.47192e-05
1.47171e-05
1.47149e-05
1.47129e-05
1.47111e-05
1.47096e-05
1.47084e-05
1.47074e-05
1.47067e-05
1.47061e-05
1.47056e-05
1.47051e-05
)
;

boundaryField
{
    fixedWalls
    {
        type            calculated;
        value           uniform 0;
    }
    inflowWall
    {
        type            calculated;
        value           nonuniform List<scalar> 5(-0.0001 -0.0001 -0.0001 -0.0001 -0.0001);
    }
    outflowWall
    {
        type            calculated;
        value           nonuniform List<scalar> 10(1.47071e-05 3.82369e-05 5.58836e-05 6.76478e-05 7.35296e-05 7.35292e-05 6.76464e-05 5.58811e-05 3.82336e-05 1.47046e-05);
    }
    frontAndBack
    {
        type            empty;
        value           nonuniform List<scalar> 0();
    }
}


// ************************************************************************* //
