/*--------------------------------*- C++ -*----------------------------------*\
| =========                 |                                                 |
| \\      /  F ield         | OpenFOAM: The Open Source CFD Toolbox           |
|  \\    /   O peration     | Version:  2306                                  |
|   \\  /    A nd           | Website:  www.openfoam.com                      |
|    \\/     M anipulation  |                                                 |
\*---------------------------------------------------------------------------*/
FoamFile
{
    version     2.0;
    format      ascii;
    arch        "LSB;label=32;scalar=64";
    class       volScalarField;
    location    "4.3";
    object      p;
}
// * * * * * * * * * * * * * * * * * * * * * * * * * * * * * * * * * * * * * //

dimensions      [0 2 -2 0 0 0 0];

internalField   nonuniform List<scalar> 
1900
(
0.0564656
0.0322433
0.0118503
-0.00349192
-0.0145141
-0.0250729
-0.0355188
-0.0476898
-0.0602526
-0.0743181
0.0272048
0.019006
0.00768927
-0.00386478
-0.0148914
-0.0250821
-0.0355191
-0.0460371
-0.0575394
-0.0685977
0.0181122
0.0136214
0.00610543
-0.00326339
-0.0133479
-0.0233278
-0.0331079
-0.0426614
-0.0520894
-0.0611763
0.0124114
0.00933807
0.00368814
-0.00396039
-0.0128122
-0.0220526
-0.0312439
-0.040158
-0.0487512
-0.0569107
0.0101877
0.00765235
0.00291374
-0.0037342
-0.0117127
-0.0203158
-0.02899
-0.0374125
-0.0454337
-0.0529644
0.0108223
0.00834164
0.00373109
-0.00273365
-0.0104717
-0.0187746
-0.0270835
-0.035081
-0.0426431
-0.0497406
0.0142782
0.0113324
0.00605156
-0.00103098
-0.00909035
-0.017376
-0.0254222
-0.0330516
-0.0402558
-0.0470697
0.0209775
0.0166823
0.00978505
0.00131701
-0.00750174
-0.0159245
-0.0237554
-0.0310882
-0.0380722
-0.0447694
0.0311186
0.0230198
0.0125845
0.00212473
-0.00718059
-0.01529
-0.0226558
-0.0297007
-0.036588
-0.0432776
0.0599689
0.0372969
0.017591
0.00352963
-0.00612577
-0.0138183
-0.021044
-0.0282577
-0.0354096
-0.0422939
-0.0975314
-0.0975648
-0.0976097
-0.0976638
-0.0977241
-0.0977903
-0.0978618
-0.0979377
-0.0980165
-0.0980968
-0.0981768
-0.098255
-0.0983296
-0.0983988
-0.0984612
-0.098515
-0.0985587
-0.0985911
-0.0986106
-0.0986164
-0.0986072
-0.0985824
-0.0985413
-0.0984833
-0.098408
-0.0983151
-0.0982044
-0.0980758
-0.0979292
-0.0977644
-0.0975813
-0.09738
-0.0971604
-0.0969225
-0.096666
-0.0963906
-0.0960945
-0.0957745
-0.0954246
-0.0950346
-0.0945891
-0.0940666
-0.093439
-0.0926723
-0.0917279
-0.0905638
-0.0891342
-0.0873883
-0.0852675
-0.0827051
-0.0796283
-0.0759621
-0.071635
-0.0665911
-0.0607989
-0.0542582
-0.047028
-0.039173
-0.0307959
-0.0220332
-0.013045
-0.00400762
0.00490015
0.0135
0.0216255
0.0291293
0.0358821
0.0417928
0.0467905
0.0508445
0.0539393
0.0560978
0.0573487
0.0577546
0.0573724
0.0562874
0.0545658
0.0522989
0.0495491
0.0464036
0.0429095
0.0391432
0.0351297
0.0309343
0.0265548
0.0220508
0.0173851
0.0126277
0.00768068
0.00267188
-0.0975269
-0.0975586
-0.0975856
-0.0976271
-0.0976784
-0.0977379
-0.0978042
-0.0978756
-0.0979505
-0.0980274
-0.0981046
-0.0981803
-0.098253
-0.0983207
-0.0983818
-0.0984347
-0.0984777
-0.0985095
-0.0985287
-0.098534
-0.0985245
-0.0984993
-0.0984575
-0.0983985
-0.0983219
-0.0982272
-0.0981142
-0.0979826
-0.0978321
-0.0976627
-0.0974739
-0.0972655
-0.097037
-0.0967879
-0.0965173
-0.096224
-0.0959062
-0.0955605
-0.0951816
-0.0947612
-0.0942872
-0.0937434
-0.0931085
-0.0923557
-0.0914521
-0.0903594
-0.0890324
-0.0874172
-0.085448
-0.0830455
-0.0801197
-0.076581
-0.0723539
-0.0674011
-0.0617134
-0.0552843
-0.0481213
-0.040304
-0.0319421
-0.0231773
-0.0141713
-0.0051055
0.00383805
0.0124738
0.0206292
0.0281712
0.0349468
0.040879
0.0458933
0.0499644
0.0530733
0.0552461
0.056509
0.0569299
0.0565617
0.0554965
0.0537961
0.0515598
0.04884
0.0457341
0.0422762
0.0385574
0.0345859
0.0304461
0.0261148
0.0216731
0.0170593
0.0123628
0.00749124
0.00257524
-0.0974093
-0.0974905
-0.0975361
-0.0975896
-0.0976459
-0.0977074
-0.0977753
-0.0978485
-0.0979257
-0.0980053
-0.0980855
-0.0981645
-0.0982404
-0.0983116
-0.0983761
-0.0984323
-0.0984785
-0.0985133
-0.0985351
-0.0985426
-0.0985348
-0.0985106
-0.0984695
-0.0984106
-0.0983336
-0.0982382
-0.098124
-0.0979911
-0.0978394
-0.0976689
-0.0974795
-0.0972708
-0.0970423
-0.096793
-0.0965219
-0.0962274
-0.0959071
-0.0955576
-0.0951741
-0.0947502
-0.0942776
-0.093746
-0.0931414
-0.0924447
-0.0916287
-0.0906554
-0.089475
-0.0880252
-0.0862281
-0.0839904
-0.0812167
-0.0778339
-0.0737473
-0.0688838
-0.0632151
-0.0567641
-0.0495743
-0.0417307
-0.0333415
-0.0245459
-0.0155185
-0.00645171
0.00247854
0.0111011
0.0192387
0.0267536
0.0335052
0.0394103
0.0443944
0.0484358
0.0515161
0.0536666
0.0549128
0.055328
0.0549633
0.0539154
0.0522419
0.050047
0.0473791
0.0443397
0.0409591
0.0373311
0.0334617
0.0294355
0.0252305
0.0209245
0.0164667
0.0119355
0.00725811
0.00252475
-0.0974914
-0.0975651
-0.0975693
-0.0975953
-0.097641
-0.0977031
-0.0977765
-0.0978573
-0.0979428
-0.0980309
-0.0981195
-0.0982064
-0.0982897
-0.0983675
-0.0984379
-0.0984992
-0.0985496
-0.0985875
-0.0986117
-0.0986208
-0.0986137
-0.0985895
-0.0985474
-0.0984869
-0.0984076
-0.0983091
-0.0981914
-0.0980547
-0.097899
-0.0977247
-0.0975316
-0.0973198
-0.0970884
-0.0968361
-0.0965615
-0.096263
-0.0959388
-0.0955867
-0.0952037
-0.0947856
-0.0943259
-0.0938171
-0.0932518
-0.0926157
-0.0918823
-0.0910099
-0.0899407
-0.0886103
-0.0869364
-0.0848176
-0.0821432
-0.0788149
-0.0747692
-0.0699426
-0.0643142
-0.0579006
-0.0507476
-0.0429465
-0.0346134
-0.0258946
-0.0169641
-0.00800659
0.000793522
0.0092668
0.0172417
0.024583
0.0311626
0.0369002
0.0417273
0.0456253
0.0485817
0.0506318
0.0518053
0.0521773
0.0518013
0.050773
0.0491514
0.0470372
0.044481
0.0415786
0.0383631
0.0349204
0.0312617
0.0274616
0.0235081
0.0194666
0.0153025
0.0110758
0.0067305
0.00232687
-0.0971649
-0.0973703
-0.0974612
-0.0975654
-0.0976641
-0.0977575
-0.0978502
-0.0979455
-0.0980431
-0.0981415
-0.0982387
-0.0983329
-0.0984221
-0.0985046
-0.0985784
-0.0986419
-0.0986935
-0.0987316
-0.0987549
-0.098762
-0.0987518
-0.0987236
-0.0986769
-0.0986111
-0.098526
-0.0984215
-0.0982978
-0.0981553
-0.0979944
-0.0978158
-0.0976195
-0.0974056
-0.0971731
-0.0969202
-0.0966448
-0.0963459
-0.0960222
-0.0956719
-0.0952931
-0.0948829
-0.0944358
-0.093944
-0.0934063
-0.0928076
-0.0921203
-0.0912973
-0.0902737
-0.0889735
-0.0873109
-0.0851958
-0.082522
-0.0792005
-0.0751572
-0.0703456
-0.064748
-0.0583878
-0.0513198
-0.0436382
-0.0354653
-0.0269504
-0.0182627
-0.00958125
-0.00108704
0.00705436
0.0146845
0.0216744
0.027911
0.0333206
0.0378471
0.0414769
0.0442076
0.0460774
0.0471238
0.04742
0.0470247
0.0460278
0.0444915
0.0425078
0.0401306
0.0374446
0.0344875
0.0313321
0.027997
0.0245426
0.0209682
0.0173233
0.0135891
0.0098081
0.00594564
0.00204525
-0.0979968
-0.0980194
-0.0979182
-0.0978733
-0.097884
-0.0979419
-0.0980299
-0.098131
-0.0982341
-0.0983361
-0.0984348
-0.0985284
-0.0986154
-0.0986941
-0.0987631
-0.0988209
-0.0988661
-0.0988974
-0.0989133
-0.0989127
-0.0988946
-0.0988584
-0.0988037
-0.0987304
-0.0986383
-0.0985271
-0.0983971
-0.0982491
-0.0980839
-0.0979019
-0.0977033
-0.097488
-0.0972548
-0.0970015
-0.0967255
-0.0964292
-0.09611
-0.0957651
-0.0953925
-0.0949895
-0.0945516
-0.0940679
-0.0935222
-0.0929057
-0.0921893
-0.091326
-0.0902511
-0.0888913
-0.08716
-0.0849678
-0.0822196
-0.0788345
-0.0747485
-0.0699272
-0.0643631
-0.058087
-0.0511619
-0.0436875
-0.0357893
-0.0276172
-0.0193347
-0.0111123
-0.00311741
0.00449502
0.0115845
0.0180345
0.0237503
0.0286697
0.0327532
0.035995
0.038406
0.0400268
0.0409036
0.041106
0.0406973
0.0397582
0.0383534
0.0365623
0.0344407
0.0320589
0.0294579
0.0266952
0.0237952
0.0208029
0.0177264
0.0146
0.011418
0.0082077
0.00495342
0.00168287
-0.0966695
-0.0973165
-0.0975194
-0.0977762
-0.0979918
-0.098155
-0.0982774
-0.0983785
-0.0984715
-0.0985599
-0.098644
-0.0987227
-0.0987946
-0.0988586
-0.0989133
-0.0989576
-0.0989903
-0.0990102
-0.0990157
-0.0990055
-0.0989786
-0.0989343
-0.0988724
-0.0987924
-0.0986941
-0.0985771
-0.0984421
-0.0982909
-0.0981235
-0.09794
-0.0977407
-0.0975252
-0.0972926
-0.0970405
-0.0967638
-0.0964581
-0.0961265
-0.0957669
-0.0953749
-0.0949454
-0.0944711
-0.0939419
-0.0933431
-0.0926549
-0.0918446
-0.0908657
-0.0896555
-0.0881426
-0.0862463
-0.0838865
-0.0809838
-0.0774728
-0.0733046
-0.0684583
-0.0629398
-0.0567902
-0.0500812
-0.0429167
-0.0354229
-0.0277462
-0.0200408
-0.0124643
-0.0051644
0.00172365
0.00808377
0.0138191
0.0188576
0.0231531
0.0266853
0.0294581
0.0314953
0.0328388
0.0335408
0.0336647
0.0332746
0.0324401
0.0312245
0.0296927
0.0278992
0.0258988
0.023733
0.021444
0.0190594
0.0166094
0.014109
0.0115783
0.00902186
0.00645372
0.00387251
0.00129305
-0.101383
-0.100003
-0.0993749
-0.0989416
-0.0987152
-0.098626
-0.0986142
-0.0986388
-0.0986777
-0.0987235
-0.098773
-0.0988228
-0.0988708
-0.0989154
-0.0989544
-0.098986
-0.0990087
-0.0990196
-0.0990163
-0.0989984
-0.0989654
-0.0989166
-0.0988519
-0.0987705
-0.0986713
-0.0985533
-0.0984147
-0.0982559
-0.0980795
-0.0978856
-0.0976729
-0.09744
-0.0971847
-0.0969042
-0.0965949
-0.0962536
-0.0958781
-0.0954644
-0.0950067
-0.0944978
-0.0939277
-0.0932836
-0.0925471
-0.0916939
-0.0906897
-0.0894904
-0.0880393
-0.0862727
-0.0841216
-0.0815195
-0.0784059
-0.0747355
-0.0704788
-0.0656312
-0.0602132
-0.054276
-0.047896
-0.0411771
-0.03424
-0.0272219
-0.0202611
-0.0134969
-0.00705422
-0.00104281
0.00445101
0.00935543
0.0136243
0.0172298
0.0201696
0.022456
0.0241214
0.0252058
0.0257623
0.0258451
0.0255153
0.0248292
0.023846
0.0226161
0.0211905
0.019609
0.0179116
0.0161265
0.0142829
0.0123979
0.0104915
0.0085717
0.00665138
0.00473226
0.00282269
0.000921869
-0.0955401
-0.096628
-0.0974658
-0.0980779
-0.0983948
-0.0985135
-0.098548
-0.0985615
-0.0985774
-0.0986076
-0.0986469
-0.0986878
-0.0987285
-0.0987676
-0.0988031
-0.098833
-0.0988562
-0.0988726
-0.0988772
-0.0988645
-0.0988328
-0.0987818
-0.0987113
-0.0986217
-0.0985118
-0.098379
-0.0982214
-0.0980387
-0.097831
-0.0975978
-0.0973375
-0.0970479
-0.096726
-0.0963681
-0.0959699
-0.0955267
-0.0950333
-0.0944841
-0.0938722
-0.0931883
-0.0924204
-0.0915535
-0.090568
-0.0894402
-0.0881384
-0.0866239
-0.0848506
-0.0827678
-0.0803232
-0.0774679
-0.0741594
-0.0703683
-0.066084
-0.0613192
-0.0561087
-0.0505114
-0.0446055
-0.0384892
-0.0322713
-0.02607
-0.0199997
-0.0141722
-0.00868304
-0.00361803
0.00096256
0.00501201
0.00850817
0.0114392
0.0138154
0.0156533
0.0169881
0.0178548
0.0183033
0.0183767
0.0181309
0.0176096
0.0168673
0.0159411
0.0148786
0.0137058
0.0124616
0.0111607
0.00983415
0.00848625
0.00714211
0.00579736
0.00447369
0.00315998
0.0018761
0.000603854
-0.11822
-0.103299
-0.101372
-0.0998957
-0.0989808
-0.0985524
-0.0983778
-0.0983157
-0.0982967
-0.0983001
-0.0983386
-0.0984006
-0.0984656
-0.0985262
-0.0985808
-0.098628
-0.0986649
-0.0986879
-0.0986919
-0.0986718
-0.0986247
-0.0985497
-0.0984475
-0.0983184
-0.0981605
-0.0979704
-0.0977452
-0.0974827
-0.0971815
-0.0968401
-0.0964563
-0.0960283
-0.0955529
-0.095026
-0.0944432
-0.0937993
-0.0930888
-0.0923054
-0.0914417
-0.0904888
-0.089435
-0.0882657
-0.0869619
-0.0854996
-0.0838517
-0.0819879
-0.0798747
-0.0774774
-0.074762
-0.0716993
-0.0682679
-0.064459
-0.0602786
-0.0557508
-0.0509154
-0.0458297
-0.0405632
-0.0351994
-0.0298277
-0.0245425
-0.0194324
-0.0145814
-0.0100584
-0.00592467
-0.00222003
0.00102858
0.00381525
0.0061378
0.0080124
0.00945571
0.0105028
0.0111832
0.0115427
0.0116154
0.0114514
0.0110841
0.0105633
0.00991546
0.00918475
0.00838595
0.00755628
0.00669819
0.005844
0.00498486
0.00415144
0.00332505
0.00253805
0.0017628
0.00103497
0.000314004
-0.0857749
-0.0922323
-0.09474
-0.095583
-0.0960302
-0.0964317
-0.096803
-0.097115
-0.0973848
-0.0976198
-0.097822
-0.0979938
-0.0981383
-0.0982592
-0.0983588
-0.0984367
-0.0984897
-0.0985131
-0.0985018
-0.0984513
-0.0983583
-0.0982213
-0.0980397
-0.0978131
-0.0975401
-0.0972188
-0.0968471
-0.0964233
-0.095946
-0.0954138
-0.0948246
-0.0941747
-0.0934606
-0.0926791
-0.0918262
-0.0908979
-0.0898893
-0.0887947
-0.0876078
-0.0863206
-0.0849236
-0.0834049
-0.0817503
-0.0799433
-0.0779656
-0.0757977
-0.0734191
-0.0708098
-0.0679519
-0.0648324
-0.0614449
-0.0577924
-0.0538886
-0.0497591
-0.045441
-0.0409821
-0.0364386
-0.0318765
-0.0273659
-0.0229796
-0.0187858
-0.0148477
-0.0112155
-0.00792867
-0.00500898
-0.00246963
-0.000308486
0.00147858
0.00290964
0.00400237
0.00479031
0.00530121
0.00557691
0.00564654
0.00555421
0.00532572
0.00500442
0.00460839
0.00417711
0.00371666
0.00326141
0.00280333
0.00237419
0.00195231
0.00157248
0.00120072
0.000880678
0.000563713
0.000304997
3.57234e-05
-0.0798408
-0.0876173
-0.0915994
-0.0930244
-0.0934592
-0.0937968
-0.094295
-0.094911
-0.095531
-0.0960807
-0.096537
-0.0969084
-0.0972129
-0.0974651
-0.0976721
-0.097834
-0.0979466
-0.0980038
-0.0979994
-0.0979286
-0.0977879
-0.0975755
-0.0972909
-0.0969345
-0.0965066
-0.0960076
-0.0954378
-0.0947973
-0.0940862
-0.0933042
-0.0924506
-0.0915241
-0.0905231
-0.0894457
-0.0882898
-0.0870528
-0.0857313
-0.0843216
-0.0828191
-0.0812186
-0.0795139
-0.0776976
-0.0757615
-0.0736962
-0.0714916
-0.0691367
-0.0666206
-0.0639327
-0.0610653
-0.0580146
-0.054782
-0.0513755
-0.0478108
-0.0441126
-0.0403145
-0.036459
-0.0325946
-0.0287732
-0.0250472
-0.0214698
-0.018091
-0.0149553
-0.0120971
-0.00954168
-0.00730204
-0.00538281
-0.00377471
-0.00246349
-0.00142733
-0.000645424
-8.70142e-05
0.000275813
0.000481432
0.000558745
0.000545269
0.00046149
0.000339295
0.000189344
4.09467e-05
-0.000105083
-0.000221873
-0.000322771
-0.000381652
-0.000427361
-0.000426967
-0.000424529
-0.000369564
-0.000328778
-0.000227605
-0.000167224
-0.0696401
-0.0768295
-0.082173
-0.0856622
-0.0878057
-0.0892618
-0.0904785
-0.091635
-0.0927436
-0.0937589
-0.0946433
-0.0953867
-0.0959997
-0.0964991
-0.0968985
-0.0972043
-0.0974171
-0.0975337
-0.0975505
-0.0974641
-0.0972729
-0.0969768
-0.0965773
-0.0960768
-0.0954783
-0.0947852
-0.0940006
-0.0931274
-0.0921681
-0.0911251
-0.09
-0.0887938
-0.0875069
-0.0861392
-0.0846899
-0.0831579
-0.0815415
-0.0798388
-0.0780474
-0.0761648
-0.074188
-0.0721139
-0.0699393
-0.0676608
-0.0652751
-0.062779
-0.06017
-0.0574465
-0.0546081
-0.051657
-0.048598
-0.0454408
-0.0422001
-0.0388982
-0.0355652
-0.0322398
-0.0289656
-0.0257878
-0.0227492
-0.0198869
-0.0172299
-0.0148004
-0.0126151
-0.0106892
-0.00903385
-0.00765031
-0.00652169
-0.00561815
-0.00490688
-0.00436182
-0.00395858
-0.0036744
-0.00347796
-0.00334005
-0.00323035
-0.00313364
-0.00303478
-0.00293255
-0.00281463
-0.00268373
-0.00252514
-0.00234943
-0.00213993
-0.00191892
-0.00166072
-0.00140398
-0.00110511
-0.00083147
-0.000503783
-0.000244755
-0.0644239
-0.0710472
-0.0765217
-0.0807424
-0.0838329
-0.0861037
-0.0878956
-0.0894476
-0.0908674
-0.0921727
-0.0933434
-0.094359
-0.095213
-0.0959112
-0.0964637
-0.0968785
-0.0971593
-0.0973062
-0.0973173
-0.0971911
-0.0969275
-0.0965282
-0.0959966
-0.0953376
-0.0945567
-0.0936598
-0.092653
-0.0915419
-0.0903317
-0.0890273
-0.0876328
-0.0861512
-0.0845848
-0.0829349
-0.081202
-0.0793864
-0.0774881
-0.0755068
-0.0734425
-0.0712954
-0.069066
-0.0667551
-0.0643643
-0.0618954
-0.0593516
-0.0567366
-0.0540553
-0.051313
-0.048516
-0.045671
-0.0427856
-0.0398693
-0.0369344
-0.0339983
-0.031086
-0.0282316
-0.0254775
-0.0228694
-0.0204474
-0.0182359
-0.0162389
-0.0144455
-0.0128445
-0.0114403
-0.0102493
-0.00927934
-0.00851062
-0.00789727
-0.00738673
-0.00694687
-0.0065676
-0.00624642
-0.00597087
-0.00571966
-0.00546771
-0.00519976
-0.00490765
-0.00459561
-0.00426736
-0.00393236
-0.00358947
-0.00324458
-0.00288937
-0.00253206
-0.00215859
-0.00178748
-0.00139337
-0.00101837
-0.000606118
-0.00025807
-0.0599215
-0.0661975
-0.0716645
-0.0762269
-0.0798916
-0.082792
-0.0851382
-0.0871298
-0.0888996
-0.0905061
-0.0919568
-0.0932384
-0.0943372
-0.0952483
-0.0959738
-0.0965184
-0.0968863
-0.0970789
-0.0970966
-0.0969398
-0.0966108
-0.0961137
-0.095455
-0.0946423
-0.0936838
-0.0925882
-0.091364
-0.0900197
-0.0885636
-0.0870035
-0.0853461
-0.0835967
-0.0817594
-0.0798369
-0.0778315
-0.0757445
-0.0735775
-0.0713321
-0.0690108
-0.0666166
-0.0641535
-0.0616265
-0.0590417
-0.056406
-0.0537282
-0.0510182
-0.0482878
-0.0455497
-0.0428168
-0.0401006
-0.0374111
-0.0347566
-0.0321456
-0.0295881
-0.0270976
-0.0246962
-0.0224208
-0.0203204
-0.0184401
-0.0167996
-0.0153751
-0.0141136
-0.0129688
-0.0119345
-0.0110358
-0.0102952
-0.00970663
-0.0092228
-0.00877631
-0.00832428
-0.00786374
-0.00741375
-0.0069907
-0.0065968
-0.00622276
-0.00585782
-0.0054904
-0.00511411
-0.00472656
-0.00433152
-0.00393074
-0.00352851
-0.00312272
-0.00271679
-0.00230516
-0.00189438
-0.00147435
-0.00106337
-0.000634895
-0.000251552
-0.0563543
-0.0624295
-0.0678799
-0.072628
-0.0766504
-0.080001
-0.0828014
-0.0851971
-0.0873086
-0.0892077
-0.0909205
-0.0924444
-0.0937666
-0.0948757
-0.0957661
-0.096437
-0.0968893
-0.0971241
-0.0971424
-0.0969463
-0.0965404
-0.0959328
-0.0951341
-0.0941564
-0.0930113
-0.0917099
-0.0902636
-0.0886835
-0.0869808
-0.085166
-0.0832481
-0.0812352
-0.0791334
-0.0769474
-0.0746809
-0.0723369
-0.0699187
-0.06743
-0.0648755
-0.0622615
-0.0595961
-0.0568888
-0.0541508
-0.0513941
-0.0486317
-0.0458779
-0.0431502
-0.040469
-0.0378539
-0.0353196
-0.0328748
-0.0305232
-0.0282674
-0.026109
-0.024048
-0.0220836
-0.0202359
-0.0185488
-0.0170714
-0.0158337
-0.0147985
-0.0138868
-0.0130341
-0.0122219
-0.0114635
-0.0107692
-0.010162
-0.00964084
-0.00916689
-0.00870795
-0.00826386
-0.00782798
-0.00739217
-0.00695354
-0.00651177
-0.00606795
-0.00562553
-0.00518969
-0.00476318
-0.00434617
-0.00393571
-0.0035308
-0.00312761
-0.00272431
-0.00231689
-0.00190647
-0.00148925
-0.0010716
-0.000647698
-0.000255588
-0.0534915
-0.0594658
-0.064911
-0.0697616
-0.073997
-0.0776497
-0.0807967
-0.0835368
-0.0859631
-0.0881421
-0.0901064
-0.0918612
-0.0933962
-0.0946966
-0.0957502
-0.0965493
-0.0970899
-0.0973706
-0.0973916
-0.0971558
-0.0966699
-0.0959455
-0.0949997
-0.0938507
-0.0925148
-0.0910068
-0.089341
-0.0875314
-0.085592
-0.0835361
-0.0813757
-0.0791211
-0.0767809
-0.0743618
-0.0718695
-0.069309
-0.0666852
-0.0640042
-0.0612732
-0.0585014
-0.0557008
-0.0528862
-0.0500743
-0.0472832
-0.0445289
-0.0418245
-0.0391891
-0.0366479
-0.0342222
-0.0319234
-0.0297521
-0.0277018
-0.0257665
-0.0239438
-0.0222315
-0.0206312
-0.0191386
-0.0177733
-0.0165625
-0.0155043
-0.0145806
-0.0137632
-0.0130223
-0.0123457
-0.0117321
-0.0111859
-0.0106487
-0.0100785
-0.00947316
-0.00887226
-0.00830278
-0.00777822
-0.00730236
-0.00686382
-0.00644401
-0.00602973
-0.00561497
-0.00519869
-0.00478186
-0.00436704
-0.00395586
-0.00354769
-0.00314073
-0.0027336
-0.00232427
-0.00191173
-0.00149443
-0.00107565
-0.000660273
-0.000252257
-0.0511404
-0.0570939
-0.0625463
-0.0674534
-0.0718155
-0.0756707
-0.079079
-0.0821082
-0.0848219
-0.0872704
-0.0894828
-0.0914665
-0.0932125
-0.0947039
-0.0959231
-0.0968553
-0.0974904
-0.0978231
-0.0978528
-0.0975832
-0.097023
-0.096187
-0.095098
-0.0937812
-0.0922599
-0.0905556
-0.0886885
-0.0866771
-0.0845389
-0.0822899
-0.0799437
-0.0775123
-0.0750052
-0.0724306
-0.0697951
-0.0671049
-0.0643665
-0.0615869
-0.0587749
-0.0559417
-0.0531009
-0.0502701
-0.0474697
-0.0447228
-0.0420496
-0.0394649
-0.0369911
-0.0346476
-0.0324436
-0.0303761
-0.0284338
-0.0265976
-0.0248498
-0.0231877
-0.0216316
-0.0202134
-0.0189667
-0.0179029
-0.016999
-0.0161555
-0.0152805
-0.0143497
-0.013396
-0.0124977
-0.0117199
-0.0110517
-0.0104683
-0.00993551
-0.00940132
-0.00887161
-0.00835271
-0.00785751
-0.00738945
-0.00694047
-0.0065022
-0.0060695
-0.00564063
-0.005216
-0.00479598
-0.00437967
-0.00396676
-0.00355653
-0.00314763
-0.00273874
-0.00232844
-0.00191557
-0.00149923
-0.00108296
-0.000672838
-0.000250421
-0.0496411
-0.0555635
-0.0609852
-0.0658979
-0.0703261
-0.074311
-0.0779022
-0.0811485
-0.0840923
-0.0867679
-0.0891953
-0.0913787
-0.0933087
-0.0949669
-0.0963314
-0.0973817
-0.0981015
-0.098481
-0.0985174
-0.0982163
-0.0975909
-0.0966609
-0.0954485
-0.0939812
-0.0922908
-0.0904099
-0.0883683
-0.0861926
-0.083905
-0.0815242
-0.0790649
-0.076539
-0.0739555
-0.0713215
-0.068643
-0.0659253
-0.0631738
-0.0603949
-0.0575964
-0.0547886
-0.0519843
-0.0492004
-0.0464575
-0.0437813
-0.0412005
-0.0387492
-0.0364532
-0.0343254
-0.0323628
-0.0305432
-0.0288304
-0.0271846
-0.0255572
-0.023927
-0.0223064
-0.0207403
-0.019289
-0.0180108
-0.0169012
-0.0159249
-0.0150303
-0.0141758
-0.0133542
-0.0125779
-0.0118634
-0.0112213
-0.0106263
-0.0100526
-0.00948752
-0.00893448
-0.00840221
-0.00789681
-0.00741744
-0.00695964
-0.00651675
-0.00608304
-0.00565495
-0.00523095
-0.00481066
-0.00439387
-0.00398008
-0.00356845
-0.00315794
-0.00274756
-0.00233637
-0.00192341
-0.00150822
-0.00109359
-0.000682598
-0.0002513
-0.048745
-0.0546871
-0.0601117
-0.0650452
-0.0695275
-0.073602
-0.0773124
-0.0807027
-0.0838099
-0.0866562
-0.0892498
-0.0915865
-0.0936526
-0.0954281
-0.0968907
-0.0980193
-0.0987973
-0.0992146
-0.0992694
-0.0989689
-0.098329
-0.0973731
-0.09613
-0.0946319
-0.0929118
-0.0910023
-0.088934
-0.0867343
-0.0844267
-0.0820306
-0.0795615
-0.0770315
-0.0744497
-0.0718234
-0.0691581
-0.0664588
-0.0637304
-0.0609782
-0.0582091
-0.0554315
-0.0526565
-0.0498983
-0.0471745
-0.0445061
-0.0419172
-0.0394316
-0.0370702
-0.0348465
-0.0327631
-0.0308122
-0.0289819
-0.0272309
-0.0255288
-0.0238733
-0.0222772
-0.020776
-0.01941
-0.0181993
-0.0171371
-0.0161715
-0.0152491
-0.0143479
-0.0134755
-0.0126586
-0.0119188
-0.011252
-0.0106397
-0.0100584
-0.00949475
-0.00894866
-0.00842432
-0.00792451
-0.00744768
-0.00698904
-0.00654328
-0.00610642
-0.00567609
-0.00525108
-0.00483061
-0.00441394
-0.00400028
-0.00358863
-0.00317793
-0.00276726
-0.00235591
-0.00194342
-0.00152943
-0.00111437
-0.000697295
-0.000257908
)
;

boundaryField
{
    fixedWalls
    {
        type            zeroGradient;
    }
    inflowWall
    {
        type            zeroGradient;
    }
    outflowWall
    {
        type            fixedValue;
        value           uniform 0;
    }
    frontAndBack
    {
        type            empty;
    }
}


// ************************************************************************* //
