/*--------------------------------*- C++ -*----------------------------------*\
| =========                 |                                                 |
| \\      /  F ield         | OpenFOAM: The Open Source CFD Toolbox           |
|  \\    /   O peration     | Version:  2306                                  |
|   \\  /    A nd           | Website:  www.openfoam.com                      |
|    \\/     M anipulation  |                                                 |
\*---------------------------------------------------------------------------*/
FoamFile
{
    version     2.0;
    format      ascii;
    arch        "LSB;label=32;scalar=64";
    class       surfaceScalarField;
    location    "0.45";
    object      phi;
}
// * * * * * * * * * * * * * * * * * * * * * * * * * * * * * * * * * * * * * //

dimensions      [0 3 -1 0 0 0 0];

oriented        oriented;

internalField   nonuniform List<scalar> 
94400
(
7.3514e-06
2.6486e-06
5.10551e-06
2.24589e-06
3.71254e-06
1.39297e-06
2.84757e-06
8.6497e-07
2.29182e-06
5.55758e-07
1.91981e-06
3.72003e-07
1.65897e-06
2.60842e-07
1.46775e-06
1.91221e-07
1.32225e-06
1.455e-07
1.20826e-06
1.13986e-07
1.11695e-06
9.13164e-08
1.04253e-06
7.44197e-08
9.8107e-07
6.1457e-08
9.29794e-07
5.12761e-08
8.8667e-07
4.3124e-08
8.50179e-07
3.64903e-08
8.19162e-07
3.10175e-08
7.92713e-07
2.64485e-08
7.70119e-07
2.25941e-08
7.50807e-07
1.93123e-08
7.34313e-07
1.64945e-08
7.20256e-07
1.40563e-08
7.08325e-07
1.19312e-08
6.98259e-07
1.00659e-08
6.89842e-07
8.41724e-09
6.82892e-07
6.9496e-09
6.77259e-07
5.6332e-09
6.72816e-07
4.44277e-09
6.6946e-07
3.35639e-09
6.67105e-07
2.35467e-09
6.65685e-07
1.42003e-09
6.65149e-07
5.35994e-10
6.65463e-07
-3.1353e-10
6.66608e-07
-1.14497e-09
6.68584e-07
-1.97598e-09
6.71411e-07
-2.82679e-09
6.75133e-07
-3.72197e-09
6.79826e-07
-4.69324e-09
6.8561e-07
-5.78419e-09
6.92669e-07
-7.05879e-09
7.01287e-07
-8.61772e-09
7.11919e-07
-1.06324e-08
7.2534e-07
-1.34211e-08
7.42969e-07
-1.76294e-08
7.67638e-07
-2.46692e-08
8.05421e-07
-3.77828e-08
8.70067e-07
-6.46463e-08
9.94606e-07
-1.24539e-07
1.26468e-06
-2.70072e-07
-6.37148e-07
1.90183e-06
1.01831e-05
2.46545e-06
9.21641e-06
3.21262e-06
7.94626e-06
2.66312e-06
6.79703e-06
2.01419e-06
5.86109e-06
1.4917e-06
5.12472e-06
1.10838e-06
4.54841e-06
8.37157e-07
4.09392e-06
6.45706e-07
3.73105e-06
5.08371e-07
3.43744e-06
4.07599e-07
3.19687e-06
3.31887e-07
2.99757e-06
2.73714e-07
2.83093e-06
2.28101e-07
2.69051e-06
1.91693e-07
2.57146e-06
1.62176e-07
2.47003e-06
1.37918e-07
2.38331e-06
1.17742e-07
2.30897e-06
1.00784e-07
2.24517e-06
8.6394e-08
2.19041e-06
7.40803e-08
2.14344e-06
6.34608e-08
2.10326e-06
5.4236e-08
2.06902e-06
4.61673e-08
2.04003e-06
3.90625e-08
2.01568e-06
3.2764e-08
1.99549e-06
2.71415e-08
1.97904e-06
2.20848e-08
1.96598e-06
1.74998e-08
1.95603e-06
1.33044e-08
1.94896e-06
9.4249e-09
1.94459e-06
5.79393e-09
1.94278e-06
2.34723e-09
1.94344e-06
-9.78858e-10
1.94655e-06
-4.25066e-09
1.95211e-06
-7.54118e-09
1.96022e-06
-1.09356e-08
1.97104e-06
-1.45397e-08
1.98484e-06
-1.8492e-08
2.00204e-06
-2.29851e-08
2.02328e-06
-2.83003e-08
2.04953e-06
-3.487e-08
2.08229e-06
-4.3393e-08
2.12393e-06
-5.50549e-08
2.17826e-06
-7.19623e-08
2.2516e-06
-9.80127e-08
2.35442e-06
-1.40595e-07
2.50355e-06
-2.13776e-07
2.72339e-06
-3.44388e-07
3.03571e-06
-5.82385e-07
-9.95696e-07
3.39426e-06
1.05345e-05
1.93093e-06
1.04951e-05
3.25202e-06
9.90361e-06
3.25463e-06
9.0917e-06
2.82611e-06
8.26037e-06
2.32302e-06
7.49873e-06
1.87002e-06
6.83568e-06
1.5002e-06
6.27167e-06
1.20972e-06
5.79603e-06
9.84004e-07
5.39544e-06
8.0819e-07
5.05727e-06
6.7006e-07
4.77069e-06
5.60292e-07
4.52681e-06
4.71986e-07
4.31842e-06
4.00083e-07
4.13973e-06
3.40864e-07
3.98607e-06
2.91574e-07
3.85366e-06
2.50152e-07
3.73942e-06
2.15032e-07
3.6408e-06
1.85015e-07
3.55571e-06
1.59168e-07
3.48241e-06
1.36758e-07
3.41945e-06
1.17199e-07
3.36559e-06
1.00021e-07
3.31982e-06
8.48395e-08
3.28124e-06
7.13367e-08
3.24914e-06
5.92465e-08
3.22288e-06
4.8343e-08
3.20195e-06
3.84307e-08
3.18592e-06
2.93378e-08
3.17443e-06
2.09093e-08
3.16722e-06
1.30013e-08
3.1641e-06
5.4759e-09
3.16492e-06
-1.80528e-09
3.16966e-06
-8.98745e-09
3.17835e-06
-1.62317e-08
3.19114e-06
-2.3727e-08
3.20831e-06
-3.1707e-08
3.23029e-06
-4.04771e-08
3.25776e-06
-5.04547e-08
3.2917e-06
-6.22352e-08
3.33353e-06
-7.6702e-08
3.38535e-06
-9.52099e-08
3.45019e-06
-1.199e-07
3.53246e-06
-1.54235e-07
3.63837e-06
-2.03913e-07
3.77606e-06
-2.78294e-07
3.95469e-06
-3.92398e-07
4.17943e-06
-5.69132e-07
4.43642e-06
-8.39378e-07
-1.22572e-06
4.66645e-06
1.04653e-05
1.46561e-06
1.07771e-05
2.94026e-06
1.06758e-05
3.35591e-06
1.02725e-05
3.22938e-06
9.71463e-06
2.88093e-06
9.108e-06
2.47664e-06
8.51515e-06
2.09305e-06
7.96691e-06
1.75796e-06
7.47487e-06
1.47604e-06
7.0404e-06
1.24266e-06
6.66002e-06
1.05044e-06
6.32838e-06
8.91937e-07
6.03971e-06
7.60646e-07
5.78858e-06
6.51221e-07
5.57005e-06
5.59388e-07
5.37986e-06
4.8177e-07
5.2143e-06
4.15707e-07
5.07023e-06
3.59099e-07
4.94497e-06
3.10281e-07
4.83621e-06
2.67923e-07
4.74202e-06
2.30956e-07
4.66071e-06
1.98508e-07
4.59086e-06
1.69869e-07
4.53125e-06
1.44446e-07
4.48084e-06
1.21746e-07
4.43874e-06
1.0135e-07
4.40418e-06
8.28974e-08
4.37654e-06
6.60738e-08
4.35528e-06
5.05998e-08
4.33997e-06
3.6221e-08
4.33027e-06
2.26994e-08
4.32594e-06
9.80466e-09
4.32683e-06
-2.69529e-09
4.33289e-06
-1.50454e-08
4.34417e-06
-2.75174e-08
4.36088e-06
-4.04284e-08
4.38334e-06
-5.41677e-08
4.41209e-06
-6.9235e-08
4.44794e-06
-8.62986e-08
4.49199e-06
-1.06283e-07
4.54579e-06
-1.30503e-07
4.61145e-06
-1.60876e-07
4.69179e-06
-2.00239e-07
4.79038e-06
-2.52827e-07
4.91142e-06
-3.24946e-07
5.05891e-06
-4.25785e-07
5.23456e-06
-5.68052e-07
5.43305e-06
-7.67616e-07
5.6336e-06
-1.03993e-06
-1.38694e-06
5.79482e-06
1.0342e-05
1.12359e-06
1.07373e-05
2.54503e-06
1.09003e-05
3.19284e-06
1.08068e-05
3.32291e-06
1.05226e-05
3.16516e-06
1.01251e-05
2.87415e-06
9.67674e-06
2.54137e-06
9.21984e-06
2.21487e-06
8.77955e-06
1.91632e-06
8.36917e-06
1.65305e-06
7.99443e-06
1.42518e-06
7.65665e-06
1.22972e-06
7.35472e-06
1.06258e-06
7.08629e-06
9.19646e-07
6.84856e-06
7.97121e-07
6.6386e-06
6.91732e-07
6.45359e-06
6.00711e-07
6.29094e-06
5.21754e-07
6.14827e-06
4.5295e-07
6.02347e-06
3.92717e-07
5.91468e-06
3.39745e-07
5.82025e-06
2.9294e-07
5.73874e-06
2.51386e-07
5.66887e-06
2.14312e-07
5.60956e-06
1.81058e-07
5.55985e-06
1.51059e-07
5.51893e-06
1.2382e-07
5.48609e-06
9.89064e-08
5.46077e-06
7.59248e-08
5.44247e-06
5.45148e-08
5.43084e-06
3.4336e-08
5.42559e-06
1.50564e-08
5.42655e-06
-3.65979e-09
5.43367e-06
-2.21674e-08
5.44701e-06
-4.08586e-08
5.46677e-06
-6.01873e-08
5.49331e-06
-8.07023e-08
5.52717e-06
-1.03094e-07
5.56913e-06
-1.28262e-07
5.62025e-06
-1.57407e-07
5.68192e-06
-1.92171e-07
5.75587e-06
-2.34825e-07
5.84417e-06
-2.88535e-07
5.94903e-06
-3.57693e-07
6.07237e-06
-4.4828e-07
6.21471e-06
-5.68127e-07
6.37333e-06
-7.26675e-07
6.5393e-06
-9.33582e-07
6.69431e-06
-1.19495e-06
-1.50515e-06
6.81252e-06
1.02416e-05
8.8195e-07
1.06171e-05
2.1696e-06
1.08951e-05
2.91479e-06
1.09957e-05
3.22237e-06
1.09248e-05
3.23599e-06
1.07228e-05
3.07613e-06
1.04357e-05
2.82855e-06
1.01024e-05
2.5481e-06
9.75202e-06
2.26673e-06
9.40387e-06
2.00119e-06
9.07002e-06
1.75903e-06
8.75728e-06
1.54245e-06
8.46896e-06
1.35091e-06
8.20612e-06
1.18248e-06
7.96849e-06
1.03476e-06
7.75499e-06
9.05229e-07
7.56416e-06
7.91542e-07
7.39435e-06
6.91565e-07
7.24388e-06
6.03422e-07
7.11111e-06
5.25484e-07
6.99451e-06
4.56345e-07
6.89265e-06
3.94796e-07
6.80425e-06
3.39793e-07
6.72812e-06
2.90435e-07
6.66324e-06
2.45938e-07
6.60869e-06
2.05614e-07
6.56366e-06
1.68853e-07
6.52745e-06
1.3511e-07
6.49949e-06
1.03886e-07
6.47929e-06
7.47187e-08
6.46646e-06
4.7166e-08
6.46072e-06
2.07949e-08
6.46189e-06
-4.83428e-09
6.46991e-06
-3.01858e-08
6.48482e-06
-5.57696e-08
6.5068e-06
-8.21693e-08
6.53618e-06
-1.10079e-07
6.57344e-06
-1.40352e-07
6.61924e-06
-1.74067e-07
6.67445e-06
-2.12617e-07
6.74011e-06
-2.57831e-07
6.8174e-06
-3.12115e-07
6.90751e-06
-3.78639e-07
7.01132e-06
-4.61508e-07
7.12892e-06
-5.6588e-07
7.25865e-06
-6.97856e-07
7.39585e-06
-8.63869e-07
7.53143e-06
-1.06916e-06
7.6514e-06
-1.31492e-06
-1.59376e-06
7.74001e-06
1.01727e-05
7.09201e-07
1.0498e-05
1.84434e-06
1.08084e-05
2.60442e-06
1.10139e-05
3.01689e-06
1.10882e-05
3.16166e-06
1.10418e-05
3.12254e-06
1.09008e-05
2.96957e-06
1.06942e-05
2.75471e-06
1.04476e-05
2.51325e-06
1.01814e-05
2.26742e-06
9.91023e-06
2.0302e-06
9.6442e-06
1.80848e-06
9.38984e-06
1.60526e-06
9.15106e-06
1.42126e-06
8.92993e-06
1.25589e-06
8.72728e-06
1.10789e-06
8.54311e-06
9.7571e-07
8.37693e-06
8.57744e-07
8.22794e-06
7.52416e-07
8.09516e-06
6.58259e-07
7.97757e-06
5.73939e-07
7.87411e-06
4.98253e-07
7.78378e-06
4.30127e-07
7.70561e-06
3.68604e-07
7.63872e-06
3.12826e-07
7.5823e-06
2.62028e-07
7.53564e-06
2.15515e-07
7.4981e-06
1.72655e-07
7.46912e-06
1.3286e-07
7.44826e-06
9.55785e-08
7.43515e-06
6.02789e-08
7.42951e-06
2.64357e-08
7.43116e-06
-6.48605e-09
7.44003e-06
-3.90501e-08
7.45613e-06
-7.18712e-08
7.4796e-06
-1.05644e-07
7.51071e-06
-1.41181e-07
7.54981e-06
-1.79455e-07
7.5974e-06
-2.21663e-07
7.65409e-06
-2.69298e-07
7.72049e-06
-3.2424e-07
7.79724e-06
-3.88856e-07
7.88469e-06
-4.66092e-07
7.98272e-06
-5.59535e-07
8.09019e-06
-6.73354e-07
8.20436e-06
-8.12022e-07
8.32012e-06
-9.79634e-07
8.42959e-06
-1.17864e-06
8.52259e-06
-1.40792e-06
-1.6605e-06
8.58934e-06
1.01274e-05
5.81813e-07
1.04004e-05
1.57135e-06
1.07032e-05
2.30156e-06
1.09558e-05
2.76437e-06
1.1119e-05
2.99842e-06
1.11845e-05
3.05699e-06
1.11619e-05
2.99223e-06
1.10685e-05
2.84808e-06
1.09236e-05
2.65814e-06
1.07447e-05
2.44632e-06
1.05463e-05
2.22868e-06
1.03394e-05
2.01534e-06
1.01324e-05
1.8123e-06
9.93093e-06
1.62271e-06
9.73892e-06
1.44789e-06
9.55877e-06
1.28804e-06
9.39184e-06
1.14264e-06
9.23875e-06
1.01083e-06
9.09962e-06
8.91548e-07
8.97421e-06
7.83667e-07
8.86208e-06
6.86073e-07
8.76264e-06
5.97692e-07
8.67525e-06
5.17519e-07
8.59923e-06
4.44618e-07
8.53393e-06
3.78124e-07
8.47872e-06
3.17241e-07
8.43301e-06
2.61228e-07
8.39627e-06
2.09398e-07
8.36803e-06
1.61101e-07
8.34789e-06
1.15716e-07
8.33553e-06
7.26392e-08
8.33069e-06
3.1269e-08
8.33322e-06
-9.00914e-09
8.34301e-06
-4.88412e-08
8.36006e-06
-8.8927e-08
8.38447e-06
-1.30047e-07
8.41638e-06
-1.73095e-07
8.45605e-06
-2.1912e-07
8.50376e-06
-2.69375e-07
8.55983e-06
-3.2537e-07
8.62453e-06
-3.88936e-07
8.69794e-06
-4.62274e-07
8.77984e-06
-5.47992e-07
8.86938e-06
-6.49075e-07
8.96478e-06
-7.68747e-07
9.0629e-06
-9.10144e-07
9.15897e-06
-1.07571e-06
9.24657e-06
-1.26624e-06
9.31837e-06
-1.47972e-06
-1.71022e-06
9.36809e-06
1.00972e-05
4.84622e-07
1.03247e-05
1.34384e-06
1.06037e-05
2.02254e-06
1.08694e-05
2.49874e-06
1.10812e-05
2.78659e-06
1.12211e-05
2.91705e-06
1.12871e-05
2.92621e-06
1.12868e-05
2.8484e-06
1.12322e-05
2.71274e-06
1.11365e-05
2.54207e-06
1.10119e-05
2.35327e-06
1.0869e-05
2.15825e-06
1.07162e-05
1.96502e-06
1.05603e-05
1.77865e-06
1.0406e-05
1.60216e-06
1.0257e-05
1.43711e-06
1.01155e-05
1.28412e-06
9.98316e-06
1.14314e-06
9.86096e-06
1.01375e-06
9.74933e-06
8.953e-07
9.64841e-06
7.86992e-07
9.55811e-06
6.8799e-07
9.47819e-06
5.97441e-07
9.4083e-06
5.14506e-07
9.34805e-06
4.38372e-07
9.29703e-06
3.68264e-07
9.25482e-06
3.03438e-07
9.22103e-06
2.43187e-07
9.1953e-06
1.86827e-07
9.17732e-06
1.33695e-07
9.16683e-06
8.31359e-08
9.1636e-06
3.44936e-08
9.1675e-06
-1.29056e-08
9.17842e-06
-5.97684e-08
9.19635e-06
-1.06855e-07
9.22131e-06
-1.55002e-07
9.25337e-06
-2.05153e-07
9.29263e-06
-2.58386e-07
9.33921e-06
-3.15957e-07
9.39317e-06
-3.79331e-07
9.45446e-06
-4.50217e-07
9.52277e-06
-5.30589e-07
9.59745e-06
-6.22672e-07
9.67725e-06
-7.28869e-07
9.76009e-06
-8.51595e-07
9.84292e-06
-9.92967e-07
9.92153e-06
-1.15432e-06
9.99085e-06
-1.33556e-06
1.00456e-05
-1.53445e-06
-1.74612e-06
1.00815e-05
1.00765e-05
4.08152e-07
1.02668e-05
1.15353e-06
1.05172e-05
1.7721e-06
1.07777e-05
2.23829e-06
1.10114e-05
2.55282e-06
1.11969e-05
2.73156e-06
1.13253e-05
2.79784e-06
1.13968e-05
2.77689e-06
1.14173e-05
2.6923e-06
1.13951e-05
2.56418e-06
1.13397e-05
2.40868e-06
1.12598e-05
2.23814e-06
1.11633e-05
2.06159e-06
1.10565e-05
1.88539e-06
1.09449e-05
1.71382e-06
1.08323e-05
1.54963e-06
1.07221e-05
1.39441e-06
1.06162e-05
1.24896e-06
1.05165e-05
1.11353e-06
1.04238e-05
9.87962e-07
1.03389e-05
8.71882e-07
1.02622e-05
7.64743e-07
1.01937e-05
6.65912e-07
1.01335e-05
5.74703e-07
1.00815e-05
4.9041e-07
1.00374e-05
4.12324e-07
1.00011e-05
3.39739e-07
9.97232e-06
2.71962e-07
9.95084e-06
2.08305e-07
9.93644e-06
1.48091e-07
9.92894e-06
9.06392e-08
9.92817e-06
3.52605e-08
9.93402e-06
-1.87543e-08
9.9464e-06
-7.2149e-08
9.96526e-06
-1.25718e-07
9.99059e-06
-1.80328e-07
1.00224e-05
-2.36934e-07
1.00606e-05
-2.96612e-07
1.01052e-05
-3.60576e-07
1.01561e-05
-4.30203e-07
1.02129e-05
-5.07044e-07
1.02751e-05
-5.92817e-07
1.03418e-05
-6.89374e-07
1.04116e-05
-7.98604e-07
1.04823e-05
-9.22273e-07
1.0551e-05
-1.06176e-06
1.06144e-05
-1.21769e-06
1.06684e-05
-1.38952e-06
1.0709e-05
-1.57511e-06
-1.77052e-06
1.07334e-05
1.00617e-05
3.46403e-07
1.02223e-05
9.93022e-07
1.04446e-05
1.54975e-06
1.06909e-05
1.99199e-06
1.09301e-05
2.31368e-06
1.11405e-05
2.52114e-06
1.131e-05
2.62832e-06
1.14341e-05
2.65276e-06
1.15139e-05
2.61256e-06
1.15536e-05
2.52448e-06
1.15593e-05
2.40292e-06
1.15378e-05
2.25967e-06
1.14954e-05
2.10396e-06
1.14381e-05
1.94278e-06
1.13707e-05
1.78121e-06
1.12974e-05
1.62286e-06
1.12217e-05
1.47014e-06
1.11461e-05
1.32456e-06
1.10726e-05
1.18699e-06
1.10028e-05
1.05779e-06
1.09377e-05
9.37005e-07
1.0878e-05
8.24414e-07
1.08243e-05
7.1964e-07
1.07768e-05
6.22191e-07
1.07357e-05
5.31506e-07
1.07011e-05
4.46979e-07
1.06728e-05
3.67976e-07
1.06509e-05
2.93847e-07
1.06353e-05
2.23933e-07
1.06258e-05
1.57564e-07
1.06224e-05
9.40593e-08
1.0625e-05
3.27219e-08
1.06334e-05
-2.71708e-08
1.06476e-05
-8.6376e-08
1.06676e-05
-1.45698e-07
1.06933e-05
-2.06005e-07
1.07246e-05
-2.68241e-07
1.07614e-05
-3.33444e-07
1.08036e-05
-4.02761e-07
1.08508e-05
-4.77454e-07
1.09027e-05
-5.58897e-07
1.09584e-05
-6.48561e-07
1.1017e-05
-7.47955e-07
1.10769e-05
-8.58541e-07
1.11363e-05
-9.81584e-07
1.11924e-05
-1.11795e-06
1.12426e-05
-1.26782e-06
1.12835e-05
-1.43047e-06
1.13124e-05
-1.60396e-06
-1.78512e-06
1.1327e-05
1.00509e-05
2.95458e-07
1.01877e-05
8.56296e-07
1.03845e-05
1.35293e-06
1.0613e-05
1.76346e-06
1.08478e-05
2.07889e-06
1.10691e-05
2.29982e-06
1.12638e-05
2.43366e-06
1.14246e-05
2.49196e-06
1.15491e-05
2.488e-06
1.16386e-05
2.43506e-06
1.16961e-05
2.34539e-06
1.17261e-05
2.22961e-06
1.17336e-05
2.09653e-06
1.17231e-05
1.95322e-06
1.16992e-05
1.80514e-06
1.16657e-05
1.65641e-06
1.16258e-05
1.51e-06
1.15823e-05
1.36801e-06
1.15375e-05
1.23182e-06
1.1493e-05
1.10226e-06
1.14503e-05
9.7975e-07
1.14103e-05
8.64405e-07
1.13738e-05
7.56111e-07
1.13414e-05
6.54591e-07
1.13135e-05
5.5945e-07
1.12903e-05
4.70208e-07
1.12719e-05
3.86329e-07
1.12585e-05
3.07232e-07
1.12501e-05
2.32307e-07
1.12468e-05
1.60918e-07
1.12484e-05
9.24041e-08
1.12551e-05
2.60822e-08
1.12667e-05
-3.87616e-08
1.12832e-05
-1.02876e-07
1.13045e-05
-1.67054e-07
1.13307e-05
-2.32143e-07
1.13615e-05
-2.9905e-07
1.13968e-05
-3.68758e-07
1.14364e-05
-4.42326e-07
1.14798e-05
-5.20888e-07
1.15265e-05
-6.05646e-07
1.15758e-05
-6.97833e-07
1.16265e-05
-7.98668e-07
1.16772e-05
-9.09266e-07
1.17262e-05
-1.03052e-06
1.17712e-05
-1.16294e-06
1.18098e-05
-1.30646e-06
1.18396e-05
-1.46028e-06
1.18584e-05
-1.62272e-06
-1.79122e-06
1.18645e-05
1.00428e-05
2.52667e-07
1.01605e-05
7.38637e-07
1.03349e-05
1.1785e-06
1.05449e-05
1.55348e-06
1.077e-05
1.85374e-06
1.09931e-05
2.0767e-06
1.12013e-05
2.22546e-06
1.13862e-05
2.30709e-06
1.15433e-05
2.33092e-06
1.16712e-05
2.3071e-06
1.1771e-05
2.24561e-06
1.1845e-05
2.1556e-06
1.18965e-05
2.04509e-06
1.19289e-05
1.9208e-06
1.19458e-05
1.7882e-06
1.19506e-05
1.65162e-06
1.19462e-05
1.51439e-06
1.19353e-05
1.37897e-06
1.192e-05
1.24713e-06
1.19021e-05
1.12009e-06
1.18833e-05
9.98595e-07
1.18646e-05
8.83059e-07
1.18471e-05
7.7362e-07
1.18315e-05
6.70211e-07
1.18183e-05
5.72609e-07
1.18081e-05
4.80474e-07
1.1801e-05
3.9338e-07
1.17974e-05
3.10832e-07
1.17975e-05
2.32287e-07
1.18012e-05
1.57161e-07
1.18088e-05
8.48319e-08
1.18202e-05
1.4648e-08
1.18355e-05
-5.40771e-08
1.18547e-05
-1.22065e-07
1.18777e-05
-1.90079e-07
1.19045e-05
-2.58925e-07
1.19349e-05
-3.29461e-07
1.19688e-05
-4.02597e-07
1.20057e-05
-4.79292e-07
1.20454e-05
-5.60555e-07
1.20872e-05
-6.47416e-07
1.21303e-05
-7.40905e-07
1.21736e-05
-8.41994e-07
1.22158e-05
-9.51525e-07
1.22554e-05
-1.07012e-06
1.22905e-05
-1.19804e-06
1.23192e-05
-1.33509e-06
1.23394e-05
-1.48049e-06
1.23494e-05
-1.63278e-06
-1.78989e-06
1.23481e-05
1.00365e-05
2.16166e-07
1.01388e-05
6.36356e-07
1.0294e-05
1.02333e-06
1.04861e-05
1.3613e-06
1.06991e-05
1.64074e-06
1.09184e-05
1.85743e-06
1.11321e-05
2.01176e-06
1.13315e-05
2.10765e-06
1.15111e-05
2.15134e-06
1.16679e-05
2.15031e-06
1.18011e-05
2.11242e-06
1.19114e-05
2.04531e-06
1.20006e-05
1.95595e-06
1.20709e-05
1.85047e-06
1.2125e-05
1.7341e-06
1.21655e-05
1.61112e-06
1.21949e-05
1.48497e-06
1.22155e-05
1.35832e-06
1.22294e-05
1.23321e-06
1.22384e-05
1.1111e-06
1.2244e-05
9.93015e-07
1.22475e-05
8.79613e-07
1.22498e-05
7.71248e-07
1.2252e-05
6.68046e-07
1.22547e-05
5.69948e-07
1.22584e-05
4.76752e-07
1.22636e-05
3.88145e-07
1.22707e-05
3.03729e-07
1.228e-05
2.23038e-07
1.22916e-05
1.45549e-07
1.23057e-05
7.06957e-08
1.23225e-05
-2.12874e-09
1.2342e-05
-7.35684e-08
1.23642e-05
-1.44304e-07
1.23892e-05
-2.15051e-07
1.24168e-05
-2.86565e-07
1.2447e-05
-3.59639e-07
1.24795e-05
-4.35101e-07
1.2514e-05
-5.13812e-07
1.25501e-05
-5.96651e-07
1.25872e-05
-6.84498e-07
1.26245e-05
-7.782e-07
1.2661e-05
-8.78528e-07
1.26956e-05
-9.86114e-07
1.27269e-05
-1.10138e-06
1.27533e-05
-1.22443e-06
1.27732e-05
-1.35499e-06
1.2785e-05
-1.49234e-06
1.27875e-05
-1.63523e-06
-1.78196e-06
1.27796e-05
1.00316e-05
1.84606e-07
1.01214e-05
5.4656e-07
1.02601e-05
8.84569e-07
1.04359e-05
1.18551e-06
1.0636e-05
1.44067e-06
1.08482e-05
1.64521e-06
1.1062e-05
1.79792e-06
1.12691e-05
1.90055e-06
1.14634e-05
1.95704e-06
1.1641e-05
1.97272e-06
1.17998e-05
1.95361e-06
1.19393e-05
1.90586e-06
1.20599e-05
1.83538e-06
1.21628e-05
1.74757e-06
1.22497e-05
1.6472e-06
1.23225e-05
1.53832e-06
1.23831e-05
1.42432e-06
1.24335e-05
1.30793e-06
1.24754e-05
1.19128e-06
1.25105e-05
1.07602e-06
1.25402e-05
9.63353e-07
1.25657e-05
8.54104e-07
1.25881e-05
7.48809e-07
1.26084e-05
6.47752e-07
1.26273e-05
5.51019e-07
1.26456e-05
4.58534e-07
1.26636e-05
3.70095e-07
1.26819e-05
2.85397e-07
1.27009e-05
2.04055e-07
1.27209e-05
1.25617e-07
1.2742e-05
4.95773e-08
1.27645e-05
-2.46142e-08
1.27884e-05
-9.75491e-08
1.2814e-05
-1.69855e-07
1.28411e-05
-2.42192e-07
1.28698e-05
-3.15254e-07
1.28999e-05
-3.89761e-07
1.29313e-05
-4.66457e-07
1.29636e-05
-5.461e-07
1.29964e-05
-6.29452e-07
1.30291e-05
-7.17254e-07
1.30611e-05
-8.102e-07
1.30915e-05
-9.08895e-07
1.31192e-05
-1.01381e-06
1.3143e-05
-1.12522e-06
1.31617e-05
-1.24312e-06
1.3174e-05
-1.36723e-06
1.31785e-05
-1.49686e-06
1.31742e-05
-1.63097e-06
-1.76815e-06
1.31604e-05
1.00276e-05
1.56974e-07
1.01072e-05
4.66952e-07
1.02321e-05
7.59696e-07
1.03932e-05
1.02439e-06
1.05806e-05
1.25334e-06
1.07841e-05
1.44168e-06
1.09947e-05
1.58732e-06
1.12046e-05
1.69063e-06
1.14078e-05
1.75388e-06
1.15997e-05
1.78075e-06
1.17777e-05
1.7757e-06
1.19399e-05
1.74358e-06
1.20861e-05
1.68925e-06
1.22163e-05
1.61733e-06
1.23315e-05
1.53202e-06
1.24328e-05
1.43705e-06
1.25215e-05
1.33559e-06
1.25991e-05
1.23029e-06
1.26671e-05
1.1233e-06
1.27268e-05
1.01633e-06
1.27795e-05
9.10665e-07
1.28263e-05
8.07259e-07
1.28684e-05
7.06764e-07
1.29065e-05
6.09586e-07
1.29416e-05
5.15925e-07
1.29744e-05
4.25813e-07
1.30053e-05
3.39144e-07
1.3035e-05
2.55701e-07
1.30639e-05
1.75178e-07
1.30923e-05
9.71939e-08
1.31206e-05
2.13089e-08
1.31489e-05
-5.29669e-08
1.31775e-05
-1.26165e-07
1.32065e-05
-1.98854e-07
1.3236e-05
-2.71632e-07
1.32659e-05
-3.45123e-07
1.32961e-05
-4.19972e-07
1.33264e-05
-4.96836e-07
1.33567e-05
-5.76378e-07
1.33865e-05
-6.59248e-07
1.34153e-05
-7.46064e-07
1.34425e-05
-8.3739e-07
1.34673e-05
-9.33698e-07
1.34888e-05
-1.03533e-06
1.35061e-05
-1.14245e-06
1.3518e-05
-1.25502e-06
1.35234e-05
-1.3727e-06
1.35215e-05
-1.49491e-06
1.35113e-05
-1.62074e-06
-1.74902e-06
1.34921e-05
1.00245e-05
1.32492e-07
1.00958e-05
3.95682e-07
1.02089e-05
6.46518e-07
1.03572e-05
8.76154e-07
1.05326e-05
1.07796e-06
1.07269e-05
1.24736e-06
1.09323e-05
1.38191e-06
1.11418e-05
1.48112e-06
1.13495e-05
1.54614e-06
1.15509e-05
1.57937e-06
1.17426e-05
1.58404e-06
1.19223e-05
1.56388e-06
1.20887e-05
1.5228e-06
1.22414e-05
1.46464e-06
1.23804e-05
1.39303e-06
1.25062e-05
1.31125e-06
1.26196e-05
1.22219e-06
1.27216e-05
1.12832e-06
1.28132e-05
1.0317e-06
1.28955e-05
9.34017e-07
1.29696e-05
8.36573e-07
1.30365e-05
7.40371e-07
1.30971e-05
6.46131e-07
1.31523e-05
5.54336e-07
1.3203e-05
4.65269e-07
1.32498e-05
3.79043e-07
1.32933e-05
2.95631e-07
1.33341e-05
2.14892e-07
1.33727e-05
1.3659e-07
1.34095e-05
6.04129e-08
1.34448e-05
-1.40153e-08
1.34789e-05
-8.71218e-08
1.35121e-05
-1.59376e-07
1.35446e-05
-2.31284e-07
1.35763e-05
-3.03376e-07
1.36074e-05
-3.76208e-07
1.36378e-05
-4.50346e-07
1.36673e-05
-5.26365e-07
1.36958e-05
-6.04832e-07
1.37228e-05
-6.86298e-07
1.3748e-05
-7.71274e-07
1.37708e-05
-8.60211e-07
1.37906e-05
-9.53473e-07
1.38066e-05
-1.0513e-06
1.38179e-05
-1.15379e-06
1.38238e-05
-1.26085e-06
1.38232e-05
-1.37216e-06
1.38155e-05
-1.48718e-06
1.37999e-05
-1.60514e-06
-1.72507e-06
1.37759e-05
1.00219e-05
1.10546e-07
1.00864e-05
3.31235e-07
1.01898e-05
5.43131e-07
1.03269e-05
7.39054e-07
1.04914e-05
9.1341e-07
1.06767e-05
1.06211e-06
1.08759e-05
1.18265e-06
1.1083e-05
1.27407e-06
1.12924e-05
1.33678e-06
1.14994e-05
1.37227e-06
1.17007e-05
1.38282e-06
1.18933e-05
1.37122e-06
1.20756e-05
1.34055e-06
1.22463e-05
1.29394e-06
1.24049e-05
1.23441e-06
1.25514e-05
1.16479e-06
1.26859e-05
1.08762e-06
1.28091e-05
1.00514e-06
1.29216e-05
9.19224e-07
1.30241e-05
8.31463e-07
1.31176e-05
7.43118e-07
1.32028e-05
6.55178e-07
1.32805e-05
5.6838e-07
1.33516e-05
4.83241e-07
1.34168e-05
4.00089e-07
1.34768e-05
3.19092e-07
1.35321e-05
2.40282e-07
1.35834e-05
1.63576e-07
1.36312e-05
8.87991e-08
1.36759e-05
1.56988e-08
1.37179e-05
-5.60403e-08
1.37576e-05
-1.26785e-07
1.37952e-05
-1.96944e-07
1.38308e-05
-2.66957e-07
1.38648e-05
-3.37291e-07
1.3897e-05
-4.08428e-07
1.39275e-05
-4.80862e-07
1.39562e-05
-5.55085e-07
1.3983e-05
-6.31578e-07
1.40075e-05
-7.108e-07
1.40294e-05
-7.93166e-07
1.40482e-05
-8.79034e-07
1.40634e-05
-9.68677e-07
1.40743e-05
-1.06226e-06
1.40804e-05
-1.15982e-06
1.40808e-05
-1.26124e-06
1.40748e-05
-1.36621e-06
1.40619e-05
-1.47424e-06
1.40414e-05
-1.58468e-06
-1.69669e-06
1.4013e-05
1.00199e-05
9.06419e-08
1.00788e-05
2.72353e-07
1.0174e-05
4.47871e-07
1.03017e-05
6.11437e-07
1.04566e-05
7.58431e-07
1.06334e-05
8.85318e-07
1.08263e-05
9.89753e-07
1.10298e-05
1.07059e-06
1.12388e-05
1.12776e-06
1.1449e-05
1.16214e-06
1.16565e-05
1.17527e-06
1.18585e-05
1.16921e-06
1.20528e-05
1.14632e-06
1.22376e-05
1.10908e-06
1.24121e-05
1.05997e-06
1.25755e-05
1.00133e-06
1.27278e-05
9.35336e-07
1.2869e-05
8.63921e-07
1.29995e-05
7.88763e-07
1.31197e-05
7.1128e-07
1.32302e-05
6.32636e-07
1.33316e-05
5.53753e-07
1.34246e-05
4.75339e-07
1.351e-05
3.97905e-07
1.35883e-05
3.21791e-07
1.36602e-05
2.4719e-07
1.37263e-05
1.74168e-07
1.37872e-05
1.02686e-07
1.38433e-05
3.26155e-08
1.38953e-05
-3.62461e-08
1.39434e-05
-1.04161e-07
1.39881e-05
-1.71439e-07
1.40295e-05
-2.3843e-07
1.40681e-05
-3.05513e-07
1.41039e-05
-3.7309e-07
1.4137e-05
-4.41574e-07
1.41676e-05
-5.11387e-07
1.41954e-05
-5.82943e-07
1.42205e-05
-6.56643e-07
1.42426e-05
-7.32864e-07
1.42613e-05
-8.11937e-07
1.42764e-05
-8.94139e-07
1.42874e-05
-9.79669e-07
1.42938e-05
-1.06863e-06
1.4295e-05
-1.16102e-06
1.42904e-05
-1.25668e-06
1.42796e-05
-1.35534e-06
1.42619e-05
-1.45656e-06
1.4237e-05
-1.55976e-06
-1.66423e-06
1.42045e-05
1.00183e-05
7.23697e-08
1.00727e-05
2.17967e-07
1.01613e-05
3.59272e-07
1.02809e-05
4.91748e-07
1.04277e-05
6.11673e-07
1.05969e-05
7.16104e-07
1.07837e-05
8.02974e-07
1.09832e-05
8.71126e-07
1.11907e-05
9.20255e-07
1.1402e-05
9.50795e-07
1.16135e-05
9.63776e-07
1.1822e-05
9.60668e-07
1.20251e-05
9.43235e-07
1.22208e-05
9.1339e-07
1.24077e-05
8.73088e-07
1.25848e-05
8.24229e-07
1.27515e-05
7.68594e-07
1.29077e-05
7.07798e-07
1.30532e-05
6.43264e-07
1.31882e-05
5.7621e-07
1.33132e-05
5.07651e-07
1.34286e-05
4.38405e-07
1.35348e-05
3.69107e-07
1.36325e-05
3.00225e-07
1.37222e-05
2.32081e-07
1.38045e-05
1.64865e-07
1.388e-05
9.8656e-08
1.39493e-05
3.34393e-08
1.40128e-05
-3.08814e-08
1.4071e-05
-9.44685e-08
1.41244e-05
-1.57539e-07
1.41733e-05
-2.20353e-07
1.42181e-05
-2.83207e-07
1.4259e-05
-3.46422e-07
1.42962e-05
-4.10337e-07
1.433e-05
-4.75301e-07
1.43602e-05
-5.41665e-07
1.43871e-05
-6.09774e-07
1.44104e-05
-6.79955e-07
1.443e-05
-7.52508e-07
1.44458e-05
-8.27692e-07
1.44573e-05
-9.05713e-07
1.44644e-05
-9.86709e-07
1.44665e-05
-1.07073e-06
1.44632e-05
-1.15774e-06
1.44541e-05
-1.24757e-06
1.44387e-05
-1.33996e-06
1.44167e-05
-1.43451e-06
1.43876e-05
-1.53071e-06
-1.62795e-06
1.43513e-05
1.0017e-05
5.53837e-08
1.00678e-05
1.67155e-07
1.0151e-05
2.76027e-07
1.02643e-05
3.78531e-07
1.04042e-05
4.71772e-07
1.05669e-05
5.53405e-07
1.07481e-05
6.21715e-07
1.09436e-05
6.75657e-07
1.1149e-05
7.14832e-07
1.13604e-05
7.39414e-07
1.15741e-05
7.50053e-07
1.1787e-05
7.47766e-07
1.19964e-05
7.33825e-07
1.22002e-05
7.09655e-07
1.23965e-05
6.76737e-07
1.25842e-05
6.3654e-07
1.27623e-05
5.90461e-07
1.29304e-05
5.39781e-07
1.3088e-05
4.85644e-07
1.32351e-05
4.2904e-07
1.3372e-05
3.70801e-07
1.34988e-05
3.11604e-07
1.36159e-05
2.51978e-07
1.37238e-05
1.9232e-07
1.3823e-05
1.32903e-07
1.3914e-05
7.38913e-08
1.39973e-05
1.53578e-08
1.40734e-05
-4.27068e-08
1.41429e-05
-1.0038e-07
1.42063e-05
-1.57795e-07
1.42638e-05
-2.15133e-07
1.43161e-05
-2.72611e-07
1.43634e-05
-3.30476e-07
1.44059e-05
-3.88996e-07
1.44441e-05
-4.48452e-07
1.44779e-05
-5.09134e-07
1.45076e-05
-5.71326e-07
1.45331e-05
-6.35308e-07
1.45545e-05
-7.01339e-07
1.45716e-05
-7.69651e-07
1.45844e-05
-8.40439e-07
1.45925e-05
-9.13847e-07
1.45957e-05
-9.89959e-07
1.45938e-05
-1.06879e-06
1.45863e-05
-1.15026e-06
1.45729e-05
-1.2342e-06
1.45533e-05
-1.32036e-06
1.45272e-05
-1.40838e-06
1.44943e-05
-1.49779e-06
-1.58806e-06
1.44544e-05
1.0016e-05
3.93839e-08
1.00641e-05
1.19101e-07
1.01431e-05
1.96952e-07
1.02512e-05
2.70417e-07
1.03856e-05
3.37371e-07
1.0543e-05
3.96055e-07
1.07196e-05
4.45148e-07
1.09114e-05
4.83803e-07
1.11146e-05
5.11629e-07
1.13254e-05
5.28657e-07
1.15402e-05
5.3527e-07
1.17558e-05
5.32135e-07
1.19695e-05
5.20121e-07
1.21789e-05
5.00223e-07
1.23822e-05
4.73499e-07
1.25777e-05
4.41009e-07
1.27644e-05
4.03773e-07
1.29414e-05
3.62737e-07
1.31083e-05
3.18751e-07
1.32648e-05
2.72554e-07
1.34108e-05
2.24772e-07
1.35465e-05
1.75914e-07
1.36721e-05
1.26381e-07
1.3788e-05
7.64683e-08
1.38945e-05
2.63803e-08
1.39922e-05
-2.37637e-08
1.40814e-05
-7.39175e-08
1.41628e-05
-1.24098e-07
1.42368e-05
-1.74376e-07
1.43039e-05
-2.24867e-07
1.43645e-05
-2.75724e-07
1.4419e-05
-3.27128e-07
1.44678e-05
-3.79282e-07
1.45112e-05
-4.32406e-07
1.45495e-05
-4.86729e-07
1.45828e-05
-5.42481e-07
1.46114e-05
-5.9989e-07
1.46353e-05
-6.59173e-07
1.46545e-05
-7.20527e-07
1.46689e-05
-7.84124e-07
1.46786e-05
-8.50099e-07
1.46833e-05
-9.18544e-07
1.46828e-05
-9.89497e-07
1.4677e-05
-1.06293e-06
1.46655e-05
-1.13875e-06
1.4648e-05
-1.21678e-06
1.46244e-05
-1.29677e-06
1.45944e-05
-1.37838e-06
1.45579e-05
-1.46121e-06
-1.54477e-06
1.45146e-05
1.00153e-05
2.41035e-08
1.00613e-05
7.30701e-08
1.01373e-05
1.20957e-07
1.02416e-05
1.66112e-07
1.03719e-05
2.07126e-07
1.05251e-05
2.42822e-07
1.06979e-05
2.72296e-07
1.08868e-05
2.94945e-07
1.1088e-05
3.10459e-07
1.12978e-05
3.18806e-07
1.15129e-05
3.20186e-07
1.173e-05
3.14987e-07
1.19464e-05
3.03741e-07
1.21596e-05
2.87066e-07
1.23675e-05
2.65631e-07
1.25684e-05
2.40111e-07
1.2761e-05
2.1116e-07
1.29443e-05
1.79388e-07
1.31177e-05
1.45343e-07
1.32808e-05
1.09501e-07
1.34333e-05
7.22645e-08
1.35752e-05
3.39572e-08
1.37068e-05
-5.17067e-09
1.38282e-05
-4.49392e-08
1.39398e-05
-8.52325e-08
1.4042e-05
-1.25993e-07
1.41353e-05
-1.67213e-07
1.42202e-05
-2.08929e-07
1.4297e-05
-2.51217e-07
1.43663e-05
-2.94183e-07
1.44286e-05
-3.37957e-07
1.44841e-05
-3.8269e-07
1.45334e-05
-4.2855e-07
1.45767e-05
-4.75711e-07
1.46143e-05
-5.24352e-07
1.46465e-05
-5.74653e-07
1.46734e-05
-6.26786e-07
1.46951e-05
-6.8091e-07
1.47118e-05
-7.37168e-07
1.47233e-05
-7.95675e-07
1.47297e-05
-8.56515e-07
1.47309e-05
-9.19732e-07
1.47267e-05
-9.85322e-07
1.4717e-05
-1.05323e-06
1.47016e-05
-1.12333e-06
1.46803e-05
-1.19545e-06
1.46529e-05
-1.26934e-06
1.46192e-05
-1.34469e-06
1.45791e-05
-1.42112e-06
-1.4982e-06
1.45325e-05
1.00148e-05
9.29881e-09
1.00595e-05
2.83837e-08
1.01334e-05
4.7022e-08
1.02352e-05
6.43729e-08
1.03626e-05
7.97167e-08
1.0513e-05
9.2445e-08
1.06832e-05
1.02082e-07
1.08698e-05
1.083e-07
1.10694e-05
1.10915e-07
1.12783e-05
1.0988e-07
1.14932e-05
1.05262e-07
1.1711e-05
9.72245e-08
1.19287e-05
8.6001e-08
1.21439e-05
7.18706e-08
1.23544e-05
5.51366e-08
1.25584e-05
3.6107e-08
1.27545e-05
1.50791e-08
1.29415e-05
-7.67292e-09
1.31188e-05
-3.19058e-08
1.32857e-05
-5.74132e-08
1.3442e-05
-8.4028e-08
1.35876e-05
-1.11623e-07
1.37225e-05
-1.40111e-07
1.3847e-05
-1.69441e-07
1.39614e-05
-1.99596e-07
1.4066e-05
-2.30591e-07
1.41612e-05
-2.62466e-07
1.42476e-05
-2.95289e-07
1.43255e-05
-3.29143e-07
1.43955e-05
-3.64132e-07
1.44579e-05
-4.00372e-07
1.45132e-05
-4.37988e-07
1.45617e-05
-4.77113e-07
1.46039e-05
-5.17882e-07
1.464e-05
-5.60429e-07
1.46702e-05
-6.04885e-07
1.46948e-05
-6.51372e-07
1.47139e-05
-6.99996e-07
1.47276e-05
-7.50849e-07
1.47359e-05
-8.03995e-07
1.47389e-05
-8.59471e-07
1.47364e-05
-9.17278e-07
1.47285e-05
-9.77376e-07
1.47149e-05
-1.03968e-06
1.46956e-05
-1.10405e-06
1.46705e-05
-1.17031e-06
1.46393e-05
-1.2382e-06
1.46021e-05
-1.30743e-06
1.45586e-05
-1.37766e-06
-1.44849e-06
1.45089e-05
1.00146e-05
-5.25955e-09
1.00585e-05