/*--------------------------------*- C++ -*----------------------------------*\
| =========                 |                                                 |
| \\      /  F ield         | OpenFOAM: The Open Source CFD Toolbox           |
|  \\    /   O peration     | Version:  2306                                  |
|   \\  /    A nd           | Website:  www.openfoam.com                      |
|    \\/     M anipulation  |                                                 |
\*---------------------------------------------------------------------------*/
FoamFile
{
    version     2.0;
    format      ascii;
    arch        "LSB;label=32;scalar=64";
    class       surfaceScalarField;
    location    "0.76";
    object      phi;
}
// * * * * * * * * * * * * * * * * * * * * * * * * * * * * * * * * * * * * * //

dimensions      [0 3 -1 0 0 0 0];

oriented        oriented;

internalField   nonuniform List<scalar> 
94400
(
7.3514e-06
2.6486e-06
5.10551e-06
2.24589e-06
3.71254e-06
1.39297e-06
2.84757e-06
8.6497e-07
2.29182e-06
5.55758e-07
1.91981e-06
3.72004e-07
1.65897e-06
2.60842e-07
1.46775e-06
1.91221e-07
1.32225e-06
1.45501e-07
1.20826e-06
1.13987e-07
1.11694e-06
9.13167e-08
1.04252e-06
7.44201e-08
9.81067e-07
6.14574e-08
9.29791e-07
5.12765e-08
8.86666e-07
4.31244e-08
8.50176e-07
3.64907e-08
8.19158e-07
3.10179e-08
7.92709e-07
2.64489e-08
7.70114e-07
2.25946e-08
7.50801e-07
1.93128e-08
7.34306e-07
1.6495e-08
7.20249e-07
1.40569e-08
7.08318e-07
1.19318e-08
6.98251e-07
1.00666e-08
6.89833e-07
8.41797e-09
6.82883e-07
6.95037e-09
6.77249e-07
5.63402e-09
6.72805e-07
4.44362e-09
6.69448e-07
3.35728e-09
6.67092e-07
2.35562e-09
6.65671e-07
1.42107e-09
6.65134e-07
5.37108e-10
6.65446e-07
-3.12337e-10
6.6659e-07
-1.14367e-09
6.68565e-07
-1.9746e-09
6.7139e-07
-2.82532e-09
6.7511e-07
-3.72039e-09
6.79802e-07
-4.69151e-09
6.85584e-07
-5.78229e-09
6.92641e-07
-7.05667e-09
7.01256e-07
-8.61535e-09
7.11886e-07
-1.06297e-08
7.25304e-07
-1.34181e-08
7.4293e-07
-1.76259e-08
7.67595e-07
-2.4665e-08
8.05372e-07
-3.7777e-08
8.70009e-07
-6.46375e-08
9.94532e-07
-1.24523e-07
1.26457e-06
-2.70038e-07
-6.37063e-07
1.90163e-06
1.01831e-05
2.46545e-06
9.21641e-06
3.21262e-06
7.94626e-06
2.66312e-06
6.79703e-06
2.01419e-06
5.86109e-06
1.4917e-06
5.12472e-06
1.10838e-06
4.5484e-06
8.37158e-07
4.09392e-06
6.45707e-07
3.73105e-06
5.08372e-07
3.43743e-06
4.076e-07
3.19686e-06
3.31889e-07
2.99757e-06
2.73715e-07
2.83092e-06
2.28102e-07
2.6905e-06
1.91694e-07
2.57145e-06
1.62178e-07
2.47002e-06
1.3792e-07
2.3833e-06
1.17744e-07
2.30896e-06
1.00785e-07
2.24516e-06
8.6396e-08
2.19039e-06
7.40824e-08
2.14342e-06
6.3463e-08
2.10324e-06
5.42383e-08
2.069e-06
4.61698e-08
2.04e-06
3.90651e-08
2.01565e-06
3.27668e-08
1.99546e-06
2.71444e-08
1.97901e-06
2.20879e-08
1.96595e-06
1.75032e-08
1.956e-06
1.33079e-08
1.94892e-06
9.42866e-09
1.94455e-06
5.79793e-09
1.94273e-06
2.35151e-09
1.94339e-06
-9.74261e-10
1.9465e-06
-4.2457e-09
1.95206e-06
-7.53581e-09
1.96016e-06
-1.09298e-08
1.97097e-06
-1.45334e-08
1.98477e-06
-1.84852e-08
2.00196e-06
-2.29777e-08
2.0232e-06
-2.82921e-08
2.04944e-06
-3.48608e-08
2.0822e-06
-4.33827e-08
2.12382e-06
-5.5043e-08
2.17814e-06
-7.19482e-08
2.25147e-06
-9.79953e-08
2.35427e-06
-1.40573e-07
2.50338e-06
-2.13744e-07
2.72319e-06
-3.44339e-07
3.03546e-06
-5.82305e-07
-9.95555e-07
3.39395e-06
1.05345e-05
1.93093e-06
1.04951e-05
3.25202e-06
9.90361e-06
3.25464e-06
9.09169e-06
2.82611e-06
8.26037e-06
2.32302e-06
7.49872e-06
1.87002e-06
6.83568e-06
1.5002e-06
6.27166e-06
1.20972e-06
5.79603e-06
9.84006e-07
5.39544e-06
8.08192e-07
5.05726e-06
6.70062e-07
4.77068e-06
5.60294e-07
4.5268e-06
4.71989e-07
4.3184e-06
4.00086e-07
4.13971e-06
3.40867e-07
3.98606e-06
2.91578e-07
3.85364e-06
2.50156e-07
3.73939e-06
2.15036e-07
3.64077e-06
1.85019e-07
3.55568e-06
1.59173e-07
3.48238e-06
1.36762e-07
3.41942e-06
1.17204e-07
3.36556e-06
1.00026e-07
3.31978e-06
8.48452e-08
3.2812e-06
7.13427e-08
3.2491e-06
5.92529e-08
3.22283e-06
4.83497e-08
3.2019e-06
3.84379e-08
3.18586e-06
2.93455e-08
3.17437e-06
2.09175e-08
3.16716e-06
1.30101e-08
3.16403e-06
5.4852e-09
3.16485e-06
-1.79531e-09
3.16958e-06
-8.97676e-09
3.17826e-06
-1.62202e-08
3.19105e-06
-2.37145e-08
3.20821e-06
-3.16934e-08
3.23018e-06
-4.04623e-08
3.25765e-06
-5.04384e-08
3.29157e-06
-6.22173e-08
3.33339e-06
-7.6682e-08
3.3852e-06
-9.51872e-08
3.45003e-06
-1.19873e-07
3.53228e-06
-1.54205e-07
3.63816e-06
-2.03876e-07
3.77584e-06
-2.78247e-07
3.95443e-06
-3.92336e-07
4.17914e-06
-5.69046e-07
4.43608e-06
-8.39253e-07
-1.22554e-06
4.66607e-06
1.04653e-05
1.46561e-06
1.07771e-05
2.94026e-06
1.06758e-05
3.35591e-06
1.02725e-05
3.22939e-06
9.71463e-06
2.88093e-06
9.108e-06
2.47665e-06
8.51515e-06
2.09306e-06
7.9669e-06
1.75797e-06
7.47487e-06
1.47604e-06
7.04039e-06
1.24267e-06
6.66001e-06
1.05045e-06
6.32836e-06
8.91942e-07
6.0397e-06
7.60651e-07
5.78856e-06
6.51227e-07
5.57003e-06
5.59394e-07
5.37983e-06
4.81776e-07
5.21428e-06
4.15713e-07
5.07021e-06
3.59105e-07
4.94494e-06
3.10288e-07
4.83618e-06
2.67931e-07
4.74198e-06
2.30964e-07
4.66066e-06
1.98517e-07
4.59081e-06
1.69878e-07
4.5312e-06
1.44456e-07
4.48079e-06
1.21757e-07
4.43868e-06
1.01361e-07
4.40412e-06
8.2909e-08
4.37647e-06
6.60861e-08
4.35521e-06
5.06128e-08
4.33989e-06
3.62349e-08
4.33018e-06
2.27143e-08
4.32585e-06
9.82059e-09
4.32673e-06
-2.67822e-09
4.33278e-06
-1.50271e-08
4.34406e-06
-2.74976e-08
4.36075e-06
-4.0407e-08
4.3832e-06
-5.41445e-08
4.41195e-06
-6.92098e-08
4.44778e-06
-8.62709e-08
4.49182e-06
-1.06252e-07
4.5456e-06
-1.30469e-07
4.61125e-06
-1.60838e-07
4.69158e-06
-2.00195e-07
4.79015e-06
-2.52776e-07
4.91116e-06
-3.24885e-07
5.05862e-06
-4.2571e-07
5.23424e-06
-5.67957e-07
5.43269e-06
-7.67492e-07
5.6332e-06
-1.03977e-06
-1.38672e-06
5.79439e-06
1.0342e-05
1.12359e-06
1.07373e-05
2.54503e-06
1.09003e-05
3.19284e-06
1.08068e-05
3.32292e-06
1.05226e-05
3.16516e-06
1.01251e-05
2.87415e-06
9.67673e-06
2.54138e-06
9.21983e-06
2.21487e-06
8.77954e-06
1.91633e-06
8.36916e-06
1.65305e-06
7.99442e-06
1.42518e-06
7.65664e-06
1.22972e-06
7.3547e-06
1.06259e-06
7.08627e-06
9.19654e-07
6.84853e-06
7.97129e-07
6.63857e-06
6.91741e-07
6.45356e-06
6.00721e-07
6.2909e-06
5.21765e-07
6.14823e-06
4.52961e-07
6.02343e-06
3.92729e-07
5.91464e-06
3.39757e-07
5.8202e-06
2.92952e-07
5.73868e-06
2.514e-07
5.66881e-06
2.14326e-07
5.60949e-06
1.81074e-07
5.55978e-06
1.51075e-07
5.51885e-06
1.23838e-07
5.48601e-06
9.89249e-08
5.46068e-06
7.59444e-08
5.44238e-06
5.45357e-08
5.43074e-06
3.43583e-08
5.42548e-06
1.50803e-08
5.42643e-06
-3.63424e-09
5.43354e-06
-2.214e-08
5.44688e-06
-4.08291e-08
5.46662e-06
-6.01553e-08
5.49315e-06
-8.06677e-08
5.52699e-06
-1.03057e-07
5.56894e-06
-1.28221e-07
5.62005e-06
-1.57361e-07
5.6817e-06
-1.9212e-07
5.75563e-06
-2.34768e-07
5.84391e-06
-2.88471e-07
5.94875e-06
-3.57618e-07
6.07206e-06
-4.48193e-07
6.21437e-06
-5.68022e-07
6.37296e-06
-7.26547e-07
6.53889e-06
-9.33424e-07
6.69387e-06
-1.19475e-06
-1.5049e-06
6.81205e-06
1.02416e-05
8.8195e-07
1.06171e-05
2.1696e-06
1.08951e-05
2.91479e-06
1.09957e-05
3.22238e-06
1.09248e-05
3.23599e-06
1.07228e-05
3.07614e-06
1.04357e-05
2.82856e-06
1.01024e-05
2.54811e-06
9.75201e-06
2.26674e-06
9.40386e-06
2.0012e-06
9.07001e-06
1.75903e-06
8.75727e-06
1.54246e-06
8.46894e-06
1.35092e-06
8.2061e-06
1.18249e-06
7.96846e-06
1.03477e-06
7.75496e-06
9.05242e-07
7.56413e-06
7.91556e-07
7.39431e-06
6.91579e-07
7.24383e-06
6.03437e-07
7.11106e-06
5.255e-07
6.99446e-06
4.56362e-07
6.8926e-06
3.94814e-07
6.80418e-06
3.39812e-07
6.72806e-06
2.90455e-07
6.66317e-06
2.45959e-07
6.60861e-06
2.05636e-07
6.56357e-06
1.68877e-07
6.52736e-06
1.35136e-07
6.49939e-06
1.03913e-07
6.47918e-06
7.47476e-08
6.46634e-06
4.71967e-08
6.46059e-06
2.08278e-08
6.46176e-06
-4.7991e-09
6.46976e-06
-3.0148e-08
6.48466e-06
-5.57289e-08
6.50663e-06
-8.21254e-08
6.536e-06
-1.10031e-07
6.57324e-06
-1.403e-07
6.61903e-06
-1.7401e-07
6.67423e-06
-2.12555e-07
6.73987e-06
-2.57762e-07
6.81714e-06
-3.12039e-07
6.90722e-06
-3.78552e-07
7.01101e-06
-4.61409e-07
7.12858e-06
-5.65766e-07
7.25828e-06
-6.97723e-07
7.39545e-06
-8.6371e-07
7.531e-06
-1.06897e-06
7.65094e-06
-1.31469e-06
-1.59348e-06
7.73952e-06
1.01727e-05
7.09202e-07
1.0498e-05
1.84435e-06
1.08084e-05
2.60442e-06
1.10139e-05
3.0169e-06
1.10882e-05
3.16167e-06
1.10418e-05
3.12255e-06
1.09008e-05
2.96958e-06
1.06941e-05
2.75472e-06
1.04476e-05
2.51326e-06
1.01814e-05
2.26743e-06
9.91021e-06
2.03021e-06
9.64418e-06
1.80849e-06
9.38982e-06
1.60528e-06
9.15104e-06
1.42128e-06
8.9299e-06
1.2559e-06
8.72724e-06
1.1079e-06
8.54307e-06
9.75728e-07
8.37689e-06
8.57763e-07
8.22789e-06
7.52435e-07
8.09511e-06
6.5828e-07
7.97751e-06
5.73961e-07
7.87405e-06
4.98276e-07
7.78371e-06
4.30152e-07
7.70553e-06
3.6863e-07
7.63864e-06
3.12854e-07
7.58222e-06
2.62058e-07
7.53555e-06
2.15547e-07
7.49799e-06
1.72688e-07
7.46901e-06
1.32895e-07
7.44814e-06
9.5616e-08
7.43502e-06
6.03189e-08
7.42937e-06
2.64784e-08
7.43101e-06
-6.4404e-09
7.43987e-06
-3.90011e-08
7.45596e-06
-7.18186e-08
7.47942e-06
-1.05588e-07
7.51051e-06
-1.4112e-07
7.54959e-06
-1.79388e-07
7.59717e-06
-2.2159e-07
7.65384e-06
-2.69218e-07
7.72023e-06
-3.24153e-07
7.79695e-06
-3.88759e-07
7.88438e-06
-4.65983e-07
7.98238e-06
-5.59412e-07
8.08983e-06
-6.73214e-07
8.20397e-06
-8.11861e-07
8.3197e-06
-9.79446e-07
8.42915e-06
-1.17842e-06
8.52212e-06
-1.40766e-06
-1.6602e-06
8.58884e-06
1.01274e-05
5.81814e-07
1.04004e-05
1.57136e-06
1.07032e-05
2.30156e-06
1.09558e-05
2.76438e-06
1.1119e-05
2.99843e-06
1.11845e-05
3.057e-06
1.11619e-05
2.99224e-06
1.10685e-05
2.84809e-06
1.09236e-05
2.65815e-06
1.07447e-05
2.44634e-06
1.05462e-05
2.22869e-06
1.03394e-05
2.01536e-06
1.01323e-05
1.81232e-06
9.9309e-06
1.62272e-06
9.73889e-06
1.44791e-06
9.55874e-06
1.28806e-06
9.3918e-06
1.14266e-06
9.23871e-06
1.01086e-06
9.09957e-06
8.91573e-07
8.97416e-06
7.83694e-07
8.86202e-06
6.861e-07
8.76257e-06
5.97721e-07
8.67517e-06
5.1755e-07
8.59915e-06
4.4465e-07
8.53385e-06
3.78159e-07
8.47863e-06
3.17277e-07
8.43291e-06
2.61267e-07
8.39616e-06
2.09439e-07
8.36791e-06
1.61145e-07
8.34776e-06
1.15763e-07
8.33539e-06
7.26889e-08
8.33055e-06
3.1322e-08
8.33306e-06
-8.95247e-09
8.34284e-06
-4.87806e-08
8.35988e-06
-8.88618e-08
8.38427e-06
-1.29977e-07
8.41617e-06
-1.73019e-07
8.45582e-06
-2.19038e-07
8.50352e-06
-2.69286e-07
8.55957e-06
-3.25273e-07
8.62425e-06
-3.88829e-07
8.69765e-06
-4.62156e-07
8.77952e-06
-5.47861e-07
8.86904e-06
-6.48928e-07
8.96441e-06
-7.68582e-07
9.0625e-06
-9.09957e-07
9.15855e-06
-1.07549e-06
9.24612e-06
-1.26599e-06
9.3179e-06
-1.47944e-06
-1.70989e-06
9.36759e-06
1.00972e-05
4.84623e-07
1.03247e-05
1.34385e-06
1.06037e-05
2.02255e-06
1.08693e-05
2.49875e-06
1.10812e-05
2.7866e-06
1.12211e-05
2.91706e-06
1.12871e-05
2.92622e-06
1.12868e-05
2.84841e-06
1.12322e-05
2.71276e-06
1.11364e-05
2.54208e-06
1.10119e-05
2.35329e-06
1.08689e-05
2.15827e-06
1.07162e-05
1.96504e-06
1.05603e-05
1.77867e-06
1.0406e-05
1.60218e-06
1.02569e-05
1.43714e-06
1.01154e-05
1.28415e-06
9.98312e-06
1.14317e-06
9.86091e-06
1.01378e-06
9.74927e-06
8.95332e-07
9.64834e-06
7.87025e-07
9.55804e-06
6.88026e-07
9.47811e-06
5.97479e-07
9.40822e-06
5.14545e-07
9.34796e-06
4.38414e-07
9.29693e-06
3.68308e-07
9.25471e-06
3.03485e-07
9.22091e-06
2.43237e-07
9.19518e-06
1.8688e-07
9.17719e-06
1.33751e-07
9.16668e-06
8.31957e-08
9.16345e-06
3.45573e-08
9.16733e-06
-1.28376e-08
9.17825e-06
-5.96958e-08
9.19616e-06
-1.06777e-07
9.22111e-06
-1.54919e-07
9.25315e-06
-2.05063e-07
9.2924e-06
-2.58289e-07
9.33896e-06
-3.15852e-07
9.39291e-06
-3.79216e-07
9.45417e-06
-4.50091e-07
9.52247e-06
-5.30451e-07
9.59713e-06
-6.2252e-07
9.6769e-06
-7.28701e-07
9.75972e-06
-8.51407e-07
9.84252e-06
-9.92756e-07
9.92111e-06
-1.15408e-06
9.99041e-06
-1.33529e-06
1.00451e-05
-1.53415e-06
-1.74578e-06
1.0081e-05
1.00765e-05
4.08153e-07
1.02668e-05
1.15354e-06
1.05172e-05
1.7721e-06
1.07777e-05
2.2383e-06
1.10114e-05
2.55283e-06
1.11969e-05
2.73157e-06
1.13253e-05
2.79786e-06
1.13968e-05
2.77691e-06
1.14172e-05
2.69231e-06
1.13951e-05
2.5642e-06
1.13397e-05
2.40871e-06
1.12598e-05
2.23817e-06
1.11632e-05
2.06161e-06
1.10565e-05
1.88541e-06
1.09448e-05
1.71385e-06
1.08323e-05
1.54966e-06
1.0722e-05
1.39444e-06
1.06162e-05
1.249e-06
1.05164e-05
1.11356e-06
1.04237e-05
9.87999e-07
1.03388e-05
8.71921e-07
1.02621e-05
7.64785e-07
1.01936e-05
6.65956e-07
1.01334e-05
5.74749e-07
1.00814e-05
4.90459e-07
1.00373e-05
4.12376e-07
1.0001e-05
3.39794e-07
9.9722e-06
2.7202e-07
9.95071e-06
2.08367e-07
9.93631e-06
1.48157e-07
9.92879e-06
9.07091e-08
9.92802e-06
3.53349e-08
9.93385e-06
-1.8675e-08
9.94622e-06
-7.20644e-08
9.96507e-06
-1.25628e-07
9.99038e-06
-1.8023e-07
1.00222e-05
-2.3683e-07
1.00604e-05
-2.965e-07
1.0105e-05
-3.60455e-07
1.01558e-05
-4.30071e-07
1.02126e-05
-5.069e-07
1.02748e-05
-5.9266e-07
1.03415e-05
-6.89202e-07
1.04112e-05
-7.98415e-07
1.04819e-05
-9.22063e-07
1.05507e-05
-1.06153e-06
1.0614e-05
-1.21743e-06
1.0668e-05
-1.38923e-06
1.07086e-05
-1.57479e-06
-1.77017e-06
1.0733e-05
1.00617e-05
3.46405e-07
1.02223e-05
9.93026e-07
1.04446e-05
1.54975e-06
1.06909e-05
1.992e-06
1.09301e-05
2.31369e-06
1.11405e-05
2.52115e-06
1.131e-05
2.62833e-06
1.14341e-05
2.65277e-06
1.15139e-05
2.61258e-06
1.15536e-05
2.5245e-06
1.15593e-05
2.40295e-06
1.15378e-05
2.2597e-06
1.14954e-05
2.10399e-06
1.1438e-05
1.94281e-06
1.13706e-05
1.78124e-06
1.12974e-05
1.6229e-06
1.12217e-05
1.47017e-06
1.11461e-05
1.3246e-06
1.10726e-05
1.18703e-06
1.10028e-05
1.05783e-06
1.09376e-05
9.37051e-07
1.0878e-05
8.24462e-07
1.08242e-05
7.1969e-07
1.07767e-05
6.22244e-07
1.07356e-05
5.31563e-07
1.0701e-05
4.47039e-07
1.06727e-05
3.68039e-07
1.06508e-05
2.93914e-07
1.06352e-05
2.24004e-07
1.06257e-05
1.57639e-07
1.06223e-05
9.41391e-08
1.06248e-05
3.28067e-08
1.06332e-05
-2.70804e-08
1.06474e-05
-8.62796e-08
1.06674e-05
-1.45595e-07
1.06931e-05
-2.05895e-07
1.07243e-05
-2.68123e-07
1.07612e-05
-3.33317e-07
1.08033e-05
-4.02624e-07
1.08506e-05
-4.77305e-07
1.09024e-05
-5.58737e-07
1.09581e-05
-6.48387e-07
1.10167e-05
-7.47765e-07
1.10766e-05
-8.58333e-07
1.11359e-05
-9.81355e-07
1.11921e-05
-1.11769e-06
1.12422e-05
-1.26755e-06
1.12831e-05
-1.43016e-06
1.13119e-05
-1.60362e-06
-1.78475e-06
1.13265e-05
1.00509e-05
2.9546e-07
1.01877e-05
8.56301e-07
1.03845e-05
1.35294e-06
1.0613e-05
1.76347e-06
1.08478e-05
2.0789e-06
1.10691e-05
2.29983e-06
1.12638e-05
2.43368e-06
1.14246e-05
2.49198e-06
1.15491e-05
2.48802e-06
1.16385e-05
2.43509e-06
1.16961e-05
2.34542e-06
1.17261e-05
2.22964e-06
1.17335e-05
2.09657e-06
1.17231e-05
1.95326e-06
1.16992e-05
1.80518e-06
1.16656e-05
1.65644e-06
1.16257e-05
1.51004e-06
1.15823e-05
1.36806e-06
1.15374e-05
1.23187e-06
1.1493e-05
1.10231e-06
1.14502e-05
9.79801e-07
1.14102e-05
8.64459e-07
1.13737e-05
7.56168e-07
1.13413e-05
6.54652e-07
1.13134e-05
5.59514e-07
1.12902e-05
4.70276e-07
1.12718e-05
3.864e-07
1.12584e-05
3.07307e-07
1.125e-05
2.32387e-07
1.12467e-05
1.61002e-07
1.12483e-05
9.24936e-08
1.12549e-05
2.61773e-08
1.12665e-05
-3.86604e-08
1.1283e-05
-1.02768e-07
1.13043e-05
-1.6694e-07
1.13305e-05
-2.3202e-07
1.13613e-05
-2.98919e-07
1.13966e-05
-3.68617e-07
1.14361e-05
-4.42175e-07
1.14795e-05
-5.20725e-07
1.15263e-05
-6.05469e-07
1.15755e-05
-6.97642e-07
1.16262e-05
-7.98461e-07
1.16769e-05
-9.09041e-07
1.17258e-05
-1.03027e-06
1.17708e-05
-1.16267e-06
1.18094e-05
-1.30617e-06
1.18392e-05
-1.45996e-06
1.1858e-05
-1.62237e-06
-1.79084e-06
1.18641e-05
1.00428e-05
2.52668e-07
1.01605e-05
7.38641e-07
1.03349e-05
1.17851e-06
1.05449e-05
1.55349e-06
1.077e-05
1.85376e-06
1.09931e-05
2.07672e-06
1.12013e-05
2.22548e-06
1.13862e-05
2.30712e-06
1.15433e-05
2.33095e-06
1.16712e-05
2.30713e-06
1.1771e-05
2.24564e-06
1.1845e-05
2.15564e-06
1.18964e-05
2.04513e-06
1.19289e-05
1.92083e-06
1.19458e-05
1.78824e-06
1.19506e-05
1.65166e-06
1.19462e-05
1.51443e-06
1.19352e-05
1.37902e-06
1.19199e-05
1.24718e-06
1.19021e-05
1.12014e-06
1.18832e-05
9.98652e-07
1.18646e-05
8.83119e-07
1.18471e-05
7.73684e-07
1.18314e-05
6.70278e-07
1.18183e-05
5.72679e-07
1.1808e-05
4.80549e-07
1.18009e-05
3.93458e-07
1.17973e-05
3.10915e-07
1.17973e-05
2.32375e-07
1.18011e-05
1.57254e-07
1.18086e-05
8.49306e-08
1.18201e-05
1.47528e-08
1.18354e-05
-5.39658e-08
1.18546e-05
-1.21947e-07
1.18776e-05
-1.89953e-07
1.19043e-05
-2.58791e-07
1.19347e-05
-3.29318e-07
1.19686e-05
-4.02443e-07
1.20055e-05
-4.79128e-07
1.20452e-05
-5.60378e-07
1.20869e-05
-6.47226e-07
1.213e-05
-7.407e-07
1.21733e-05
-8.41772e-07
1.22155e-05
-9.51285e-07
1.22551e-05
-1.06986e-06
1.22902e-05
-1.19776e-06
1.23188e-05
-1.33479e-06
1.2339e-05
-1.48016e-06
1.23491e-05
-1.63242e-06
-1.7895e-06
1.23477e-05
1.00365e-05
2.16168e-07
1.01388e-05
6.36361e-07
1.02939e-05
1.02334e-06
1.04861e-05
1.36132e-06
1.06991e-05
1.64075e-06
1.09184e-05
1.85745e-06
1.11321e-05
2.01178e-06
1.13315e-05
2.10768e-06
1.15111e-05
2.15137e-06
1.16679e-05
2.15034e-06
1.18011e-05
2.11246e-06
1.19114e-05
2.04534e-06
1.20005e-05
1.95598e-06
1.20708e-05
1.85052e-06
1.21249e-05
1.73415e-06
1.21654e-05
1.61117e-06
1.21948e-05
1.48502e-06
1.22155e-05
1.35838e-06
1.22294e-05
1.23326e-06
1.22384e-05
1.11116e-06
1.2244e-05
9.93078e-07
1.22474e-05
8.79678e-07
1.22498e-05
7.71318e-07
1.22519e-05
6.68119e-07
1.22546e-05
5.70025e-07
1.22583e-05
4.76833e-07
1.22635e-05
3.88231e-07
1.22706e-05
3.0382e-07
1.22799e-05
2.23134e-07
1.22915e-05
1.4565e-07
1.23056e-05
7.08032e-08
1.23224e-05
-2.01488e-09
1.23418e-05
-7.34477e-08
1.23641e-05
-1.44175e-07
1.2389e-05
-2.14915e-07
1.24167e-05
-2.8642e-07
1.24468e-05
-3.59484e-07
1.24793e-05
-4.34936e-07
1.25138e-05
-5.13636e-07
1.25499e-05
-5.96462e-07
1.2587e-05
-6.84295e-07
1.26243e-05
-7.77982e-07
1.26608e-05
-8.78293e-07
1.26954e-05
-9.85861e-07
1.27266e-05
-1.1011e-06
1.2753e-05
-1.22413e-06
1.27729e-05
-1.35468e-06
1.27847e-05
-1.492e-06
1.27872e-05
-1.63486e-06
-1.78157e-06
1.27792e-05
1.00316e-05
1.84608e-07
1.01214e-05
5.46566e-07
1.02601e-05
8.84578e-07
1.04359e-05
1.18553e-06
1.0636e-05
1.44069e-06
1.08482e-05
1.64523e-06
1.1062e-05
1.79794e-06
1.12691e-05
1.90057e-06
1.14634e-05
1.95707e-06
1.1641e-05
1.97275e-06
1.17998e-05
1.95364e-06
1.19393e-05
1.9059e-06
1.20598e-05
1.83542e-06
1.21627e-05
1.74762e-06
1.22496e-05
1.64725e-06
1.23224e-05
1.53837e-06
1.23831e-05
1.42438e-06
1.24335e-05
1.30798e-06
1.24754e-05
1.19134e-06
1.25105e-05
1.07609e-06
1.25401e-05
9.6342e-07
1.25656e-05
8.54175e-07
1.25881e-05
7.48883e-07
1.26083e-05
6.47831e-07
1.26273e-05
5.51102e-07
1.26455e-05
4.58622e-07
1.26635e-05
3.70187e-07
1.26818e-05
2.85495e-07
1.27008e-05
2.04158e-07
1.27207e-05
1.25726e-07
1.27419e-05
4.96927e-08
1.27643e-05
-2.4492e-08
1.27883e-05
-9.74196e-08
1.28138e-05
-1.69718e-07
1.2841e-05
-2.42047e-07
1.28697e-05
-3.15099e-07
1.28998e-05
-3.89596e-07
1.29311e-05
-4.66281e-07
1.29634e-05
-5.45913e-07
1.29962e-05
-6.29252e-07
1.30289e-05
-7.1704e-07
1.30609e-05
-8.09971e-07
1.30913e-05
-9.0865e-07
1.3119e-05
-1.01355e-06
1.31428e-05
-1.12493e-06
1.31615e-05
-1.24282e-06
1.31737e-05
-1.3669e-06
1.31782e-05
-1.49651e-06
1.3174e-05
-1.63059e-06
-1.76774e-06
1.31601e-05
1.00276e-05
1.56976e-07
1.01072e-05
4.66958e-07
1.02321e-05
7.59705e-07
1.03932e-05
1.02441e-06
1.05806e-05
1.25336e-06
1.07841e-05
1.4417e-06
1.09947e-05
1.58734e-06
1.12046e-05
1.69065e-06
1.14078e-05
1.75392e-06
1.15997e-05
1.78078e-06
1.17776e-05
1.77574e-06
1.19399e-05
1.74362e-06
1.2086e-05
1.68929e-06
1.22163e-05
1.61737e-06
1.23315e-05
1.53207e-06
1.24327e-05
1.4371e-06
1.25215e-05
1.33565e-06
1.25991e-05
1.23035e-06
1.26671e-05
1.12337e-06
1.27268e-05
1.0164e-06
1.27794e-05
9.10737e-07
1.28263e-05
8.07334e-07
1.28683e-05
7.06844e-07
1.29065e-05
6.0967e-07
1.29416e-05
5.16014e-07
1.29743e-05
4.25907e-07
1.30052e-05
3.39243e-07
1.30349e-05
2.55805e-07
1.30638e-05
1.75288e-07
1.30922e-05
9.731e-08
1.31205e-05
2.14316e-08
1.31488e-05
-5.28373e-08
1.31774e-05
-1.26028e-07
1.32064e-05
-1.98709e-07
1.32358e-05
-2.71478e-07
1.32657e-05
-3.44959e-07
1.32959e-05
-4.19798e-07
1.33263e-05
-4.96652e-07
1.33565e-05
-5.76182e-07
1.33863e-05
-6.59039e-07
1.34151e-05
-7.45841e-07
1.34423e-05
-8.37152e-07
1.34671e-05
-9.33444e-07
1.34886e-05
-1.03506e-06
1.35059e-05
-1.14216e-06
1.35177e-05
-1.25471e-06
1.35232e-05
-1.37237e-06
1.35212e-05
-1.49455e-06
1.3511e-05
-1.62036e-06
-1.74862e-06
1.34919e-05
1.00245e-05
1.32494e-07
1.00958e-05
3.95688e-07
1.02089e-05
6.46528e-07
1.03572e-05
8.76168e-07
1.05325e-05
1.07797e-06
1.07269e-05
1.24738e-06
1.09323e-05
1.38194e-06
1.11418e-05
1.48115e-06
1.13495e-05
1.54618e-06
1.15509e-05
1.5794e-06
1.17426e-05
1.58407e-06
1.19223e-05
1.56392e-06
1.20887e-05
1.52285e-06
1.22414e-05
1.46469e-06
1.23804e-05
1.39309e-06
1.25062e-05
1.31131e-06
1.26196e-05
1.22225e-06
1.27215e-05
1.12838e-06
1.28131e-05
1.03177e-06
1.28954e-05
9.34088e-07
1.29695e-05
8.36649e-07
1.30364e-05
7.40451e-07
1.3097e-05
6.46215e-07
1.31523e-05
5.54425e-07
1.32029e-05
4.65363e-07
1.32497e-05
3.79142e-07
1.32932e-05
2.95735e-07
1.3334e-05
2.15002e-07
1.33726e-05
1.36706e-07
1.34094e-05
6.05351e-08
1.34447e-05
-1.38863e-08
1.34788e-05
-8.69856e-08
1.3512e-05
-1.59233e-07
1.35445e-05
-2.31132e-07
1.35762e-05
-3.03215e-07
1.36073e-05
-3.76037e-07
1.36376e-05
-4.50165e-07
1.36672e-05
-5.26173e-07
1.36956e-05
-6.04629e-07
1.37227e-05
-6.86082e-07
1.37479e-05
-7.71044e-07
1.37707e-05
-8.59966e-07
1.37904e-05
-9.53212e-07
1.38064e-05
-1.05103e-06
1.38177e-05
-1.1535e-06
1.38236e-05
-1.26053e-06
1.3823e-05
-1.37182e-06
1.38153e-05
-1.48682e-06
1.37997e-05
-1.60476e-06
-1.72466e-06
1.37757e-05
1.00219e-05
1.10548e-07
1.00864e-05
3.31242e-07
1.01898e-05
5.43142e-07
1.03269e-05
7.39069e-07
1.04914e-05
9.13429e-07
1.06767e-05
1.06213e-06
1.08759e-05
1.18267e-06
1.1083e-05
1.2741e-06
1.12923e-05
1.33682e-06
1.14994e-05
1.37231e-06
1.17007e-05
1.38286e-06
1.18933e-05
1.37127e-06
1.20756e-05
1.3406e-06
1.22463e-05
1.29399e-06
1.24049e-05
1.23447e-06
1.25513e-05
1.16485e-06
1.26859e-05
1.08769e-06
1.28091e-05
1.0052e-06
1.29215e-05
9.19295e-07
1.30241e-05
8.31538e-07
1.31175e-05
7.43198e-07
1.32027e-05
6.55262e-07
1.32805e-05
5.68468e-07
1.33516e-05
4.83334e-07
1.34167e-05
4.00187e-07
1.34767e-05
3.19196e-07
1.3532e-05
2.40391e-07
1.35833e-05
1.63691e-07
1.36311e-05
8.892e-08
1.36758e-05
1.58263e-08
1.37179e-05
-5.59059e-08
1.37575e-05
-1.26643e-07
1.37951e-05
-1.96794e-07
1.38307e-05
-2.66799e-07
1.38647e-05
-3.37124e-07
1.38969e-05
-4.08252e-07
1.39274e-05
-4.80675e-07
1.39561e-05
-5.54887e-07
1.39828e-05
-6.31369e-07
1.40073e-05
-7.10577e-07
1.40292e-05
-7.9293e-07
1.4048e-05
-8.78784e-07
1.40632e-05
-9.68412e-07
1.40742e-05
-1.06198e-06
1.40802e-05
-1.15952e-06
1.40806e-05
-1.26092e-06
1.40747e-05
-1.36587e-06
1.40617e-05
-1.47388e-06
1.40413e-05
-1.5843e-06
-1.69629e-06
1.40129e-05
1.00199e-05
9.06442e-08
1.00788e-05
2.7236e-07
1.0174e-05
4.47882e-07
1.03017e-05
6.11452e-07
1.04566e-05
7.5845e-07
1.06334e-05
8.85341e-07
1.08263e-05
9.89779e-07
1.10298e-05
1.07062e-06
1.12388e-05
1.1278e-06
1.1449e-05
1.16218e-06
1.16565e-05
1.17531e-06
1.18585e-05
1.16926e-06
1.20527e-05
1.14637e-06
1.22376e-05
1.10914e-06
1.2412e-05
1.06003e-06
1.25755e-05
1.00139e-06
1.27278e-05
9.35402e-07
1.2869e-05
8.6399e-07
1.29995e-05
7.88837e-07
1.31196e-05
7.11359e-07
1.32301e-05
6.32718e-07
1.33315e-05
5.5384e-07
1.34246e-05
4.75431e-07
1.35099e-05
3.98002e-07
1.35882e-05
3.21893e-07
1.36601e-05
2.47297e-07
1.37262e-05
1.74281e-07
1.37871e-05
1.02805e-07
1.38433e-05
3.27406e-08
1.38952e-05
-3.61144e-08
1.39433e-05
-1.04022e-07
1.3988e-05
-1.71292e-07
1.40295e-05
-2.38275e-07
1.4068e-05
-3.0535e-07
1.41038e-05
-3.72918e-07
1.4137e-05
-4.41393e-07
1.41675e-05
-5.11195e-07
1.41953e-05
-5.8274e-07
1.42204e-05
-6.5643e-07
1.42424e-05
-7.32637e-07
1.42612e-05
-8.11697e-07
1.42763e-05
-8.93885e-07
1.42873e-05
-9.79401e-07
1.42937e-05
-1.06835e-06
1.42949e-05
-1.16072e-06
1.42903e-05
-1.25636e-06
1.42794e-05
-1.35501e-06
1.42618e-05
-1.45621e-06
1.42369e-05
-1.55938e-06
-1.66383e-06
1.42044e-05
1.00183e-05
7.23721e-08
1.00727e-05
2.17974e-07
1.01613e-05
3.59283e-07
1.02809e-05
4.91763e-07
1.04277e-05
6.11692e-07
1.05969e-05
7.16127e-07
1.07837e-05
8.03002e-07
1.09832e-05
8.71158e-07
1.11907e-05
9.20291e-07
1.1402e-05
9.50835e-07
1.16135e-05
9.63819e-07
1.1822e-05
9.60716e-07
1.20251e-05
9.43286e-07
1.22208e-05
9.13445e-07
1.24077e-05
8.73148e-07
1.25848e-05
8.24293e-07
1.27515e-05
7.68662e-07
1.29077e-05
7.0787e-07
1.30531e-05
6.4334e-07
1.31882e-05
5.76291e-07
1.33132e-05
5.07736e-07
1.34285e-05
4.38495e-07
1.35348e-05
3.69202e-07
1.36325e-05
3.00325e-07
1.37222e-05
2.32186e-07
1.38045e-05
1.64975e-07
1.388e-05
9.87721e-08
1.39492e-05
3.35614e-08
1.40127e-05
-3.0753e-08
1.40709e-05
-9.43334e-08
1.41243e-05
-1.57397e-07
1.41732e-05
-2.20204e-07
1.4218e-05
-2.8305e-07
1.42589e-05
-3.46256e-07
1.42962e-05
-4.10162e-07
1.43299e-05
-4.75116e-07
1.43602e-05
-5.41471e-07
1.4387e-05
-6.09569e-07
1.44103e-05
-6.79738e-07
1.44299e-05
-7.52279e-07
1.44457e-05
-8.2745e-07
1.44573e-05
-9.05458e-07
1.44643e-05
-9.86439e-07
1.44664e-05
-1.07045e-06
1.44631e-05
-1.15744e-06
1.4454e-05
-1.24726e-06
1.44386e-05
-1.33963e-06
1.44166e-05
-1.43416e-06
1.43875e-05
-1.53034e-06
-1.62755e-06
1.43513e-05
1.0017e-05
5.5386e-08
1.00678e-05
1.67161e-07
1.0151e-05
2.76038e-07
1.02643e-05
3.78546e-07
1.04042e-05
4.71792e-07
1.05669e-05
5.53429e-07
1.07481e-05
6.21743e-07
1.09436e-05
6.75689e-07
1.1149e-05
7.14869e-07
1.13604e-05
7.39455e-07
1.15741e-05
7.50097e-07
1.1787e-05
7.47814e-07
1.19964e-05
7.33878e-07
1.22002e-05
7.09711e-07
1.23965e-05
6.76798e-07
1.25842e-05
6.36605e-07
1.27623e-05
5.9053e-07
1.29303e-05
5.39854e-07
1.3088e-05
4.85722e-07
1.32351e-05
4.29123e-07
1.3372e-05
3.70888e-07
1.34988e-05
3.11695e-07
1.36159e-05
2.52075e-07
1.37238e-05
1.92422e-07
1.3823e-05
1.3301e-07
1.3914e-05
7.40039e-08
1.39972e-05
1.54762e-08
1.40734e-05
-4.25824e-08
1.41429e-05
-1.00249e-07
1.42062e-05
-1.57657e-07
1.42638e-05
-2.14988e-07
1.43161e-05
-2.72459e-07
1.43633e-05
-3.30316e-07
1.44059e-05
-3.88828e-07
1.4444e-05
-4.48275e-07
1.44778e-05
-5.08947e-07
1.45075e-05
-5.7113e-07
1.4533e-05
-6.35101e-07
1.45544e-05
-7.01121e-07
1.45716e-05
-7.69422e-07
1.45843e-05
-8.40197e-07
1.45924e-05
-9.13592e-07
1.45957e-05
-9.8969e-07
1.45937e-05
-1.0685e-06
1.45863e-05
-1.14996e-06
1.45729e-05
-1.23389e-06
1.45533e-05
-1.32003e-06
1.45272e-05
-1.40803e-06
1.44943e-05
-1.49742e-06
-1.58768e-06
1.44544e-05
1.0016e-05
3.93862e-08
1.00641e-05
1.19108e-07
1.01431e-05
1.96963e-07
1.02512e-05
2.70433e-07
1.03856e-05
3.37391e-07
1.0543e-05
3.96079e-07
1.07196e-05
4.45177e-07
1.09114e-05
4.83835e-07
1.11146e-05
5.11666e-07
1.13254e-05
5.28697e-07
1.15402e-05
5.35315e-07
1.17558e-05
5.32184e-07
1.19695e-05
5.20174e-07
1.21789e-05
5.0028e-07
1.23822e-05
4.7356e-07
1.25777e-05
4.41074e-07
1.27644e-05
4.03843e-07
1.29414e-05
3.62812e-07
1.31083e-05
3.1883e-07
1.32648e-05
2.72638e-07
1.34108e-05
2.2486e-07
1.35465e-05
1.76007e-07
1.36721e-05
1.26479e-07
1.3788e-05
7.65715e-08
1.38945e-05
2.64888e-08
1.39921e-05
-2.36497e-08
1.40814e-05
-7.37977e-08
1.41628e-05
-1.23972e-07
1.42368e-05
-1.74244e-07
1.43039e-05
-2.24728e-07
1.43645e-05
-2.75578e-07
1.4419e-05
-3.26974e-07
1.44678e-05
-3.79121e-07
1.45112e-05
-4.32237e-07
1.45495e-05
-4.86551e-07
1.45828e-05
-5.42294e-07
1.46114e-05
-5.99694e-07
1.46352e-05
-6.58966e-07
1.46544e-05
-7.20309e-07
1.46689e-05
-7.83895e-07
1.46786e-05
-8.49858e-07
1.46833e-05
-9.1829e-07
1.46828e-05
-9.89229e-07
1.46769e-05
-1.06265e-06
1.46654e-05
-1.13845e-06
1.4648e-05
-1.21647e-06
1.46244e-05
-1.29644e-06
1.45944e-05
-1.37804e-06
1.45579e-05
-1.46085e-06
-1.54439e-06
1.45146e-05
1.00153e-05
2.41059e-08
1.00613e-05
7.30771e-08
1.01373e-05
1.20969e-07
1.02416e-05
1.66128e-07
1.03719e-05
2.07146e-07
1.05251e-05
2.42847e-07
1.06979e-05
2.72325e-07
1.08868e-05
2.94977e-07
1.1088e-05
3.10496e-07
1.12978e-05
3.18847e-07
1.15129e-05
3.20231e-07
1.173e-05
3.15037e-07
1.19464e-05
3.03794e-07
1.21596e-05
2.87124e-07
1.23675e-05
2.65693e-07
1.25683e-05
2.40177e-07
1.2761e-05
2.11231e-07
1.29443e-05
1.79463e-07
1.31177e-05
1.45422e-07
1.32808e-05
1.09585e-07
1.34333e-05
7.23534e-08
1.35752e-05
3.4051e-08
1.37068e-05
-5.07194e-09
1.38282e-05
-4.48353e-08
1.39398e-05
-8.51234e-08
1.4042e-05
-1.25878e-07
1.41353e-05
-1.67092e-07
1.42202e-05
-2.08803e-07
1.4297e-05
-2.51085e-07
1.43663e-05
-2.94043e-07
1.44285e-05
-3.3781e-07
1.44841e-05
-3.82537e-07
1.45334e-05
-4.28389e-07
1.45767e-05
-4.75542e-07
1.46143e-05
-5.24174e-07
1.46465e-05
-5.74467e-07
1.46734e-05
-6.2659e-07
1.46951e-05
-6.80705e-07
1.47118e-05
-7.36952e-07
1.47233e-05
-7.95448e-07
1.47297e-05
-8.56277e-07
1.47309e-05
-9.19481e-07
1.47267e-05
-9.85058e-07
1.4717e-05
-1.05295e-06
1.47016e-05
-1.12304e-06
1.46803e-05
-1.19515e-06
1.46529e-05
-1.26902e-06
1.46192e-05
-1.34436e-06
1.45791e-05
-1.42077e-06
-1.49783e-06
1.45326e-05
1.00148e-05
9.3012e-09
1.00595e-05
2.83907e-08
1.01334e-05
4.70334e-08
1.02352e-05
6.43887e-08
1.03626e-05
7.97368e-08
1.0513e-05
9.24693e-08
1.06832e-05
1.02111e-07
1.08698e-05
1.08333e-07
1.10694e-05
1.10952e-07
1.12783e-05
1.09921e-07
1.14932e-05
1.05307e-07
1.1711e-05
9.7274e-08
1.19287e-05
8.60547e-08
1.21439e-05
7.19286e-08
1.23544e-05
5.51988e-08
1.25584e-05
3.61736e-08
1.27545e-05
1.51499e-08
1.29415e-05
-7.59764e-09
1.31188e-05
-3.18261e-08
1.32857e-05
-5.73289e-08
1.3442e-05
-8.39391e-08
1.35876e-05
-1.1153e-07
1.37225e-05
-1.40013e-07
1.3847e-05
-1.69337e-07
1.39614e-05
-1.99487e-07
1.4066e-05
-2.30476e-07
1.41612e-05
-2.62346e-07
1.42476e-05
-2.95162e-07
1.43255e-05
-3.29011e-07
1.43955e-05
-3.63994e-07
1.44579e-05
-4.00227e-07
1.45132e-05
-4.37836e-07
1.45618e-05
-4.76953e-07
1.46039e-05
-5.17714e-07
1.464e-05
-5.60253e-07
1.46702e-05
-6.04701e-07
1.46948e-05
-6.51178e-07
1.47139e-05
-6.99793e-07
1.47276e-05
-7.50636e-07
1.47359e-05
-8.03771e-07
1.47389e-05
-8.59236e-07
1.47364e-05
-9.17032e-07
1.47285e-05
-9.77118e-07
1.47149e-05
-1.03941e-06
1.46957e-05
-1.10377e-06
1.46705e-05
-1.17001e-06
1.46394e-05
-1.23789e-06
1.46022e-05
-1.30711e-06
1.45587e-05
-1.37732e-06
-1.44813e-06
1.4509e-05
1.00146e-05
-5.25717e-09
1.00585e-05
-1.55959e-08
1.01314e-05