/*--------------------------------*- C++ -*----------------------------------*\
| =========                 |                                                 |
| \\      /  F ield         | OpenFOAM: The Open Source CFD Toolbox           |
|  \\    /   O peration     | Version:  2306                                  |
|   \\  /    A nd           | Website:  www.openfoam.com                      |
|    \\/     M anipulation  |                                                 |
\*---------------------------------------------------------------------------*/
FoamFile
{
    version     2.0;
    format      ascii;
    arch        "LSB;label=32;scalar=64";
    class       volVectorField;
    location    "0.76";
    object      U;
}
// * * * * * * * * * * * * * * * * * * * * * * * * * * * * * * * * * * * * * //

dimensions      [0 1 -1 0 0 0 0];

internalField   nonuniform List<vector> 
47500
(
(0.708058 0.141126 0)
(0.605107 0.126852 0)
(0.442238 0.0756733 0)
(0.323205 0.0428889 0)
(0.252628 0.0249084 0)
(0.207935 0.0151468 0)
(0.177257 0.00977788 0)
(0.155189 0.00671789 0)
(0.138693 0.0048735 0)
(0.125941 0.00368955 0)
(0.115823 0.00288365 0)
(0.107638 0.00230732 0)
(0.100916 0.00187861 0)
(0.0953319 0.00154969 0)
(0.0906513 0.00129107 0)
(0.0867007 0.00108369 0)
(0.0833487 0.000914678 0)
(0.0804939 0.000775022 0)
(0.0780566 0.000658253 0)
(0.0759732 0.000559602 0)
(0.0741927 0.000475482 0)
(0.0726732 0.000403145 0)
(0.0713805 0.000340452 0)
(0.0702862 0.000285708 0)
(0.0693666 0.000237556 0)
(0.0686021 0.000194888 0)
(0.0679762 0.000156788 0)
(0.0674751 0.000122488 0)
(0.0670873 9.13308e-05 0)
(0.0668034 6.27458e-05 0)
(0.0666159 3.62245e-05 0)
(0.066519 1.13029e-05 0)
(0.0665083 -1.24564e-05 0)
(0.0665813 -3.54821e-05 0)
(0.0667369 -5.82136e-05 0)
(0.0669759 -8.11261e-05 0)
(0.0673015 -0.000104766 0)
(0.0677194 -0.000129804 0)
(0.068239 -0.000157141 0)
(0.0688747 -0.000188113 0)
(0.0696485 -0.000224986 0)
(0.0705948 -0.000272218 0)
(0.0717703 -0.000339837 0)
(0.0732747 -0.000452796 0)
(0.0752972 -0.000676765 0)
(0.0782135 -0.00118825 0)
(0.0828934 -0.00247053 0)
(0.0917683 -0.00591935 0)
(0.110506 -0.0158014 0)
(0.145423 -0.0449145 0)
(0.990012 0.273751 0)
(0.981277 0.298007 0)
(0.863903 0.21609 0)
(0.734143 0.146999 0)
(0.62832 0.100193 0)
(0.545477 0.069771 0)
(0.48066 0.05016 0)
(0.429787 0.0373105 0)
(0.389455 0.0286159 0)
(0.357039 0.022513 0)
(0.330632 0.0180773 0)
(0.308863 0.0147523 0)
(0.290735 0.0121935 0)
(0.27551 0.0101803 0)
(0.262635 0.0085666 0)
(0.251688 0.00725243 0)
(0.242341 0.0061676 0)
(0.234337 0.00526149 0)
(0.22747 0.00449675 0)
(0.221574 0.00384536 0)
(0.216513 0.00328584 0)
(0.212178 0.00280152 0)
(0.208476 0.00237924 0)
(0.20533 0.00200845 0)
(0.202675 0.00168061 0)
(0.200459 0.00138864 0)
(0.198636 0.00112665 0)
(0.197168 0.000889621 0)
(0.196024 0.000673187 0)
(0.195177 0.00047349 0)
(0.194609 0.000287012 0)
(0.194302 0.000110439 0)
(0.194246 -5.94807e-05 0)
(0.194434 -0.000226093 0)
(0.194866 -0.000393042 0)
(0.195546 -0.00056454 0)
(0.196487 -0.000745775 0)
(0.197709 -0.00094355 0)
(0.199245 -0.00116735 0)
(0.201148 -0.00143127 0)
(0.203493 -0.00175757 0)
(0.206398 -0.00218388 0)
(0.210047 -0.00277816 0)
(0.214733 -0.00367153 0)
(0.220935 -0.0051312 0)
(0.229438 -0.00772118 0)
(0.241557 -0.0126524 0)
(0.259592 -0.0225913 0)
(0.286461 -0.0434288 0)
(0.320505 -0.0855638 0)
(1.02873 0.230537 0)
(1.06518 0.337273 0)
(1.02857 0.307935 0)
(0.952112 0.249931 0)
(0.866774 0.194722 0)
(0.785961 0.15009 0)
(0.714441 0.116323 0)
(0.653202 0.091316 0)
(0.601486 0.0727586 0)
(0.557967 0.0588158 0)
(0.521294 0.0481663 0)
(0.490281 0.0398887 0)
(0.463943 0.0333449 0)
(0.44148 0.0280902 0)
(0.422248 0.0238108 0)
(0.40573 0.0202814 0)
(0.391508 0.0173377 0)
(0.379242 0.0148578 0)
(0.368653 0.0127495 0)
(0.359514 0.0109424 0)
(0.351633 0.00938177 0)
(0.344852 0.00802445 0)
(0.339038 0.00683596 0)
(0.334079 0.00578843 0)
(0.329881 0.00485898 0)
(0.326364 0.00402858 0)
(0.323459 0.00328118 0)
(0.321111 0.00260299 0)
(0.319272 0.00198193 0)
(0.317903 0.0014072 0)
(0.316974 0.000868827 0)
(0.31646 0.000357287 0)
(0.316347 -0.000136898 0)
(0.316624 -0.000623649 0)
(0.317293 -0.00111394 0)
(0.318361 -0.00162064 0)
(0.31985 -0.00215976 0)
(0.321794 -0.00275234 0)
(0.324246 -0.00342755 0)
(0.327287 -0.00422781 0)
(0.331033 -0.00521763 0)
(0.335654 -0.00649931 0)
(0.3414 -0.00824146 0)
(0.348632 -0.0107314 0)
(0.357873 -0.0144717 0)
(0.369839 -0.0203487 0)
(0.385444 -0.0299051 0)
(0.40566 -0.0457435 0)
(0.430536 -0.0719358 0)
(0.45622 -0.112671 0)
(1.02485 0.170713 0)
(1.0701 0.31458 0)
(1.08052 0.338862 0)
(1.05259 0.311341 0)
(1.00162 0.267049 0)
(0.941437 0.222039 0)
(0.880405 0.182511 0)
(0.822876 0.149853 0)
(0.770721 0.123532 0)
(0.724425 0.102475 0)
(0.683787 0.0855988 0)
(0.648316 0.0719866 0)
(0.617433 0.0609114 0)
(0.590565 0.0518145 0)
(0.567191 0.0442711 0)
(0.54685 0.0379583 0)
(0.529144 0.0326297 0)
(0.513733 0.0280955 0)
(0.500326 0.0242084 0)
(0.488675 0.0208528 0)
(0.478571 0.017937 0)
(0.469833 0.0153874 0)
(0.462307 0.0131446 0)
(0.455862 0.0111595 0)
(0.450384 0.00939166 0)
(0.445778 0.00780694 0)
(0.441962 0.00637623 0)
(0.438866 0.00507432 0)
(0.436432 0.00387892 0)
(0.434612 0.00276988 0)
(0.433368 0.00172843 0)
(0.432671 0.000736505 0)
(0.432501 -0.000224055 0)
(0.432847 -0.00117237 0)
(0.433711 -0.00212969 0)
(0.435103 -0.0031209 0)
(0.43705 -0.0041768 0)
(0.439594 -0.00533737 0)
(0.4428 -0.0066569 0)
(0.446761 -0.008212 0)
(0.451609 -0.0101144 0)
(0.457522 -0.0125319 0)
(0.464744 -0.0157217 0)
(0.473595 -0.0200845 0)
(0.484471 -0.0262467 0)
(0.497811 -0.0351746 0)
(0.513976 -0.0482958 0)
(0.532959 -0.0675461 0)
(0.55365 -0.0950901 0)
(0.572638 -0.131803 0)
(1.01676 0.128188 0)
(1.05701 0.275119 0)
(1.08731 0.331706 0)
(1.09071 0.333618 0)
(1.07009 0.308319 0)
(1.03427 0.272656 0)
(0.990736 0.235656 0)
(0.944689 0.201449 0)
(0.899382 0.171492 0)
(0.856629 0.145945 0)
(0.817292 0.124422 0)
(0.781666 0.106361 0)
(0.749722 0.0911945 0)
(0.721266 0.0784164 0)
(0.696027 0.0675992 0)
(0.673711 0.0583919 0)
(0.654028 0.0505099 0)
(0.636705 0.0437237 0)
(0.621492 0.0378479 0)
(0.608167 0.0327324 0)
(0.59653 0.0282549 0)
(0.586407 0.0243151 0)
(0.577642 0.0208301 0)
(0.570101 0.0177307 0)
(0.563667 0.0149586 0)
(0.558237 0.0124641 0)
(0.553723 0.0102042 0)
(0.55005 0.00814139 0)
(0.547155 0.00624196 0)
(0.544984 0.00447522 0)
(0.543495 0.0028123 0)
(0.542655 0.00122521 0)
(0.542443 -0.000314335 0)
(0.542846 -0.00183621 0)
(0.543865 -0.00337353 0)
(0.545513 -0.00496485 0)
(0.547815 -0.00665723 0)
(0.550818 -0.00851065 0)
(0.554585 -0.0106044 0)
(0.559209 -0.0130466 0)
(0.564809 -0.0159884 0)
(0.571542 -0.0196446 0)
(0.579599 -0.0243243 0)
(0.589201 -0.0304715 0)
(0.600572 -0.0387177 0)
(0.613866 -0.0499301 0)
(0.629032 -0.0652191 0)
(0.645577 -0.0858191 0)
(0.662176 -0.11268 0)
(0.67637 -0.14544 0)
(1.01072 0.0991317 0)
(1.04301 0.23517 0)
(1.0786 0.307021 0)
(1.09883 0.330721 0)
(1.09974 0.324346 0)
(1.08498 0.301816 0)
(1.05947 0.272329 0)
(1.02763 0.24131 0)
(0.992875 0.211623 0)
(0.957573 0.184563 0)
(0.923249 0.160547 0)
(0.890801 0.139539 0)
(0.860696 0.121295 0)
(0.833129 0.105495 0)
(0.808122 0.0918141 0)
(0.785596 0.0799479 0)
(0.765418 0.0696287 0)
(0.747426 0.0606253 0)
(0.731452 0.0527414 0)
(0.717328 0.0458112 0)
(0.704895 0.0396947 0)
(0.694005 0.0342738 0)
(0.684522 0.0294484 0)
(0.676322 0.0251331 0)
(0.669295 0.0212547 0)
(0.663344 0.0177494 0)
(0.658382 0.0145617 0)
(0.654335 0.0116419 0)
(0.65114 0.00894508 0)
(0.648741 0.00642993 0)
(0.647097 0.00405718 0)
(0.646173 0.00178844 0)
(0.645947 -0.000415177 0)
(0.646406 -0.00259476 0)
(0.647549 -0.00479562 0)
(0.649387 -0.00706997 0)
(0.651943 -0.0094805 0)
(0.65526 -0.0121053 0)
(0.659393 -0.0150447 0)
(0.664419 -0.0184308 0)
(0.670433 -0.0224403 0)
(0.677549 -0.0273121 0)
(0.685889 -0.0333696 0)
(0.695567 -0.0410454 0)
(0.706648 -0.0509033 0)
(0.719079 -0.0636408 0)
(0.73258 -0.0800371 0)
(0.746496 -0.100794 0)
(0.759653 -0.126198 0)
(0.770393 -0.155533 0)
(1.00696 0.078706 0)
(1.03212 0.199738 0)
(1.0665 0.27624 0)
(1.09406 0.313697 0)
(1.10825 0.322645 0)
(1.10913 0.313168 0)
(1.09906 0.29316 0)
(1.08101 0.26813 0)
(1.0578 0.241583 0)
(1.03173 0.215573 0)
(1.00456 0.191184 0)
(0.977504 0.168898 0)
(0.95136 0.148849 0)
(0.926631 0.130974 0)
(0.9036 0.115118 0)
(0.882401 0.101084 0)
(0.863066 0.0886704 0)
(0.845564 0.0776812 0)
(0.829827 0.0679386 0)
(0.815762 0.0592828 0)
(0.803269 0.0515728 0)
(0.792241 0.0446848 0)
(0.782575 0.0385104 0)
(0.774172 0.0329547 0)
(0.76694 0.0279343 0)
(0.760793 0.0233751 0)
(0.755655 0.0192112 0)
(0.751458 0.0153829 0)
(0.748144 0.0118353 0)
(0.745662 0.00851737 0)
(0.74397 0.00537998 0)
(0.743037 0.00237492 0)
(0.74284 -0.000546867 0)
(0.743365 -0.00343712 0)
(0.744611 -0.0063525 0)
(0.746583 -0.0093575 0)
(0.749303 -0.0125282 0)
(0.752801 -0.0159569 0)
(0.757121 -0.0197592 0)
(0.762318 -0.0240814 0)
(0.768455 -0.0291118 0)
(0.775597 -0.0350927 0)
(0.783799 -0.0423337 0)
(0.793083 -0.0512228 0)
(0.803398 -0.0622269 0)
(0.814568 -0.0758685 0)
(0.826216 -0.0926565 0)
(0.8377 -0.112943 0)
(0.848081 -0.136687 0)
(0.856256 -0.163153 0)
(1.00471 0.0639288 0)
(1.02437 0.169812 0)
(1.05518 0.244955 0)
(1.08471 0.289746 0)
(1.1061 0.309619 0)
(1.11748 0.311214 0)
(1.11927 0.300617 0)
(1.11301 0.282689 0)
(1.10064 0.260963 0)
(1.08406 0.237828 0)
(1.06488 0.214794 0)
(1.04438 0.192751 0)
(1.02351 0.17217 0)
(1.00297 0.153253 0)
(0.983224 0.136042 0)
(0.96457 0.12048 0)
(0.947191 0.106463 0)
(0.931181 0.0938618 0)
(0.916571 0.0825409 0)
(0.903352 0.0723671 0)
(0.891487 0.0632144 0)
(0.880923 0.0549663 0)
(0.871597 0.0475165 0)
(0.863443 0.0407681 0)
(0.856393 0.0346338 0)
(0.850381 0.029034 0)
(0.845348 0.0238959 0)
(0.841237 0.0191527 0)
(0.837998 0.0147418 0)
(0.835587 0.010604 0)
(0.833968 0.00668206 0)
(0.833113 0.00291909 0)
(0.832999 -0.00074282 0)
(0.833615 -0.00436464 0)
(0.834955 -0.00801267 0)
(0.837024 -0.0117613 0)
(0.839833 -0.0156968 0)
(0.843404 -0.0199213 0)
(0.847763 -0.0245588 0)
(0.852943 -0.0297611 0)
(0.858975 -0.0357157 0)
(0.865879 -0.0426534 0)
(0.873653 -0.0508535 0)
(0.882253 -0.060645 0)
(0.891554 -0.0723947 0)
(0.901321 -0.0864751 0)
(0.911166 -0.103198 0)
(0.92052 -0.122704 0)
(0.928666 -0.144815 0)
(0.934859 -0.168882 0)
(1.00335 0.0528705 0)
(1.01892 0.144905 0)
(1.04573 0.21562 0)
(1.0745 0.263238 0)
(1.09913 0.290073 0)
(1.11694 0.300134 0)
(1.12715 0.297754 0)
(1.13018 0.286849 0)
(1.12712 0.270593 0)
(1.11929 0.251377 0)
(1.10799 0.230893 0)
(1.09438 0.21028 0)
(1.07941 0.190262 0)
(1.06384 0.171267 0)
(1.04822 0.153522 0)
(1.03298 0.137117 0)
(1.01841 0.122059 0)
(1.00469 0.108301 0)
(0.991945 0.0957669 0)
(0.980245 0.0843662 0)
(0.969616 0.0740013 0)
(0.960059 0.0645744 0)
(0.951555 0.0559906 0)
(0.944073 0.0481595 0)
(0.937575 0.0409958 0)
(0.932021 0.0344196 0)
(0.927369 0.0283558 0)
(0.923577 0.0227337 0)
(0.920609 0.0174858 0)
(0.91843 0.0125473 0)
(0.917011 0.00785463 0)
(0.916328 0.00334433 0)
(0.916364 -0.00104854 0)
(0.917105 -0.00539218 0)
(0.918547 -0.00976022 0)
(0.920688 -0.0142342 0)
(0.923535 -0.0189069 0)
(0.927097 -0.0238856 0)
(0.931385 -0.0292969 0)
(0.93641 -0.0352907 0)
(0.942174 -0.0420454 0)
(0.948662 -0.0497708 0)
(0.955832 -0.0587086 0)
(0.963592 -0.0691269 0)
(0.971783 -0.0813039 0)
(0.980153 -0.0954945 0)
(0.988337 -0.111876 0)
(0.995864 -0.130471 0)
(1.00219 -0.151057 0)
(1.0068 -0.173095 0)
(1.00249 0.0443077 0)
(1.01505 0.124158 0)
(1.03815 0.189092 0)
(1.06495 0.236619 0)
(1.09042 0.267283 0)
(1.11174 0.283267 0)
(1.12753 0.287452 0)
(1.13744 0.282786 0)
(1.14186 0.271909 0)
(1.14155 0.256995 0)
(1.13745 0.239726 0)
(1.13048 0.221343 0)
(1.12148 0.202719 0)
(1.11117 0.184446 0)
(1.10013 0.166898 0)
(1.08884 0.150298 0)
(1.07763 0.134761 0)
(1.06678 0.120326 0)
(1.05647 0.106984 0)
(1.04682 0.0946955 0)
(1.03793 0.0834002 0)
(1.02984 0.0730279 0)
(1.02258 0.0635029 0)
(1.01615 0.0547478 0)
(1.01054 0.0466855 0)
(1.00574 0.0392407 0)
(1.00172 0.0323402 0)
(0.998475 0.0259128 0)
(0.995967 0.0198895 0)
(0.994178 0.0142024 0)
(0.993086 0.00878413 0)
(0.992675 0.0035669 0)
(0.99293 -0.00151905 0)
(0.993842 -0.00654682 0)
(0.995404 -0.0115948 0)
(0.997612 -0.0167487 0)
(1.00047 -0.0221044 0)
(1.00397 -0.0277702 0)
(1.00811 -0.0338706 0)
(1.01289 -0.0405484 0)
(1.01828 -0.0479672 0)
(1.02425 -0.056312 0)
(1.03072 -0.0657856 0)
(1.03758 -0.0766008 0)
(1.04466 -0.0889627 0)
(1.05171 -0.10304 0)
(1.05841 -0.118923 0)
(1.06437 -0.136571 0)
(1.06919 -0.155763 0)
(1.0725 -0.176061 0)
(1.00193 0.0374799 0)
(1.01223 0.106747 0)
(1.03212 0.165481 0)
(1.05656 0.211135 0)
(1.08152 0.243328 0)
(1.1044 0.263056 0)
(1.1236 0.272104 0)
(1.13833 0.272569 0)
(1.14845 0.266522 0)
(1.15429 0.255813 0)
(1.1564 0.241986 0)
(1.15545 0.226265 0)
(1.1521 0.209582 0)
(1.14698 0.19262 0)
(1.14063 0.175859 0)
(1.1335 0.159623 0)
(1.12598 0.144119 0)
(1.11836 0.129467 0)
(1.11086 0.115723 0)
(1.10366 0.102901 0)
(1.09689 0.0909812 0)
(1.09064 0.079927 0)
(1.08496 0.0696868 0)
(1.07989 0.060201 0)
(1.07546 0.0514056 0)
(1.07167 0.0432339 0)
(1.06853 0.0356184 0)
(1.06602 0.0284911 0)
(1.06415 0.021784 0)
(1.06289 0.0154292 0)
(1.06225 0.00935805 0)
(1.06221 0.00350061 0)
(1.06276 -0.00221523 0)
(1.06389 -0.00786509 0)
(1.0656 -0.0135295 0)
(1.06788 -0.0192957 0)
(1.07073 -0.0252594 0)
(1.07414 -0.0315268 0)
(1.07809 -0.0382166 0)
(1.08257 -0.0454611 0)
(1.08754 -0.0534067 0)
(1.09294 -0.0622126 0)
(1.09868 -0.0720456 0)
(1.10465 -0.0830713 0)
(1.11067 -0.0954377 0)
(1.11651 -0.109252 0)
(1.1219 -0.124551 0)
(1.12653 -0.141265 0)
(1.13008 -0.159189 0)
(1.13229 -0.177972 0)
(1.00154 0.0319034 0)
(1.01014 0.0919935 0)
(1.02733 0.144583 0)
(1.04939 0.187342 0)
(1.07314 0.219455 0)
(1.09635 0.241192 0)
(1.1174 0.253561 0)
(1.13529 0.257972 0)
(1.14957 0.255975 0)
(1.16022 0.249066 0)
(1.16747 0.238582 0)
(1.17173 0.225655 0)
(1.17348 0.211199 0)
(1.17322 0.195927 0)
(1.1714 0.180379 0)
(1.16843 0.164948 0)
(1.16469 0.149909 0)
(1.16046 0.135447 0)
(1.156 0.121678 0)
(1.15149 0.108663 0)
(1.1471 0.0964269 0)
(1.14294 0.0849641 0)
(1.1391 0.0742505 0)
(1.13565 0.0642475 0)
(1.13262 0.0549069 0)
(1.13006 0.046174 0)
(1.12798 0.0379898 0)
(1.12639 0.0302923 0)
(1.1253 0.0230174 0)
(1.12471 0.0160995 0)
(1.12462 0.00947084 0)
(1.12504 0.00306198 0)
(1.12595 -0.00319941 0)
(1.12735 -0.00938913 0)
(1.12925 -0.0155876 0)
(1.13162 -0.0218809 0)
(1.13447 -0.0283622 0)
(1.13778 -0.0351331 0)
(1.14153 -0.0423039 0)
(1.14569 -0.0499949 0)
(1.15021 -0.0583345 0)
(1.15504 -0.0674575 0)
(1.16006 -0.077499 0)
(1.16517 -0.0885858 0)
(1.1702 -0.100823 0)
(1.17496 -0.114276 0)
(1.1792 -0.128949 0)
(1.18268 -0.14476 0)
(1.18516 -0.161531 0)
(1.18643 -0.178977 0)
(1.00126 0.0272584 0)
(1.00854 0.0793617 0)
(1.0235 0.126089 0)
(1.04334 0.165415 0)
(1.06559 0.196367 0)
(1.08837 0.218795 0)
(1.1102 0.233181 0)
(1.13002 0.24042 0)
(1.14718 0.241618 0)
(1.16144 0.237937 0)
(1.17278 0.230487 0)
(1.1814 0.220259 0)
(1.18759 0.208102 0)
(1.19169 0.194713 0)
(1.19407 0.180647 0)
(1.19508 0.166334 0)
(1.19503 0.152094 0)
(1.19421 0.13816 0)
(1.19284 0.124692 0)
(1.19114 0.111796 0)
(1.18928 0.0995321 0)
(1.18737 0.0879271 0)
(1.18554 0.076983 0)
(1.18387 0.0666831 0)
(1.18242 0.0569964 0)
(1.18124 0.0478819 0)
(1.18036 0.0392912 0)
(1.17983 0.0311704 0)
(1.17964 0.0234613 0)
(1.17983 0.0161024 0)
(1.18039 0.00902955 0)
(1.18134 0.00217533 0)
(1.18268 -0.00453062 0)
(1.1844 -0.0111623 0)
(1.18651 -0.0177978 0)
(1.189 -0.0245202 0)
(1.19187 -0.0314181 0)
(1.19508 -0.0385865 0)
(1.19863 -0.0461264 0)
(1.20247 -0.0541449 0)
(1.20656 -0.0627533 0)
(1.21082 -0.0720641 0)
(1.21517 -0.0821857 0)
(1.21948 -0.0932143 0)
(1.22362 -0.105223 0)
(1.2274 -0.118249 0)
(1.23063 -0.132277 0)
(1.23312 -0.147226 0)
(1.23467 -0.162941 0)
(1.23513 -0.179191 0)
(1.00105 0.0233246 0)
(1.0073 0.0684349 0)
(1.02042 0.109676 0)
(1.03827 0.145332 0)
(1.05893 0.17442 0)
(1.08087 0.19657 0)
(1.10277 0.211925 0)
(1.12361 0.221004 0)
(1.14267 0.224567 0)
(1.15953 0.22348 0)
(1.17403 0.218631 0)
(1.18617 0.210858 0)
(1.19609 0.200914 0)
(1.204 0.189445 0)
(1.21016 0.176993 0)
(1.21482 0.163993 0)
(1.21826 0.150788 0)
(1.22071 0.13764 0)
(1.22239 0.124742 0)
(1.22349 0.112231 0)
(1.22419 0.100198 0)
(1.22461 0.0886967 0)
(1.22487 0.0777541 0)
(1.22508 0.0673733 0)
(1.22531 0.0575406 0)
(1.22561 0.0482291 0)
(1.22605 0.039402 0)
(1.22666 0.0310144 0)
(1.22747 0.0230157 0)
(1.22851 0.0153504 0)
(1.22979 0.00795875 0)
(1.23133 0.000777562 0)
(1.23314 -0.00626 0)
(1.23523 -0.0132244 0)
(1.23759 -0.0201898 0)
(1.24022 -0.0272347 0)
(1.24311 -0.0344417 0)
(1.24625 -0.0418979 0)
(1.24961 -0.0496945 0)
(1.25315 -0.0579255 0)
(1.25683 -0.0666862 0)
(1.26057 -0.0760696 0)
(1.26428 -0.086162 0)
(1.26787 -0.0970359 0)
(1.2712 -0.108741 0)
(1.27412 -0.121296 0)
(1.27647 -0.134675 0)
(1.2781 -0.1488 0)
(1.27884 -0.163541 0)
(1.27858 -0.178708 0)
(1.00089 0.0199449 0)
(1.00633 0.0588875 0)
(1.01792 0.0950399 0)
(1.03402 0.126971 0)
(1.05314 0.15376 0)
(1.07404 0.174939 0)
(1.09557 0.190443 0)
(1.1168 0.200535 0)
(1.137 0.205705 0)
(1.15566 0.206583 0)
(1.17252 0.203854 0)
(1.18743 0.198203 0)
(1.20041 0.190276 0)
(1.21155 0.180651 0)
(1.22099 0.169831 0)
(1.22893 0.158236 0)
(1.23555 0.146212 0)
(1.24106 0.134033 0)
(1.24563 0.121909 0)
(1.24944 0.11 0)
(1.25265 0.0984177 0)
(1.25538 0.0872393 0)
(1.25775 0.0765102 0)
(1.25986 0.0662517 0)
(1.26181 0.0564659 0)
(1.26365 0.0471392 0)
(1.26545 0.0382462 0)
(1.26726 0.0297517 0)
(1.26911 0.0216133 0)
(1.27105 0.0137821 0)
(1.2731 0.00620443 0)
(1.27527 -0.00117784 0)
(1.27759 -0.00842665 0)
(1.28007 -0.0156076 0)
(1.2827 -0.0227898 0)
(1.28549 -0.0300458 0)
(1.28844 -0.0374513 0)
(1.29152 -0.0450851 0)
(1.29471 -0.053028 0)
(1.29797 -0.0613619 0)
(1.30126 -0.0701675 0)
(1.30452 -0.0795211 0)
(1.30766 -0.0894907 0)
(1.31059 -0.10013 0)
(1.3132 -0.111474 0)
(1.31536 -0.123526 0)
(1.31693 -0.136256 0)
(1.3178 -0.149595 0)
(1.31784 -0.163429 0)
(1.31695 -0.177604 0)
(1.00077 0.0170034 0)
(1.00555 0.0504631 0)
(1.01588 0.081912 0)
(1.03048 0.110166 0)
(1.04816 0.134402 0)
(1.06794 0.154126 0)
(1.08886 0.169157 0)
(1.11006 0.179586 0)
(1.13084 0.185709 0)
(1.15069 0.187965 0)
(1.16924 0.186871 0)
(1.18627 0.182971 0)
(1.2017 0.176803 0)
(1.2155 0.168867 0)
(1.22775 0.159614 0)
(1.23854 0.149435 0)
(1.248 0.13866 0)
(1.25629 0.127562 0)
(1.26353 0.116358 0)
(1.26988 0.105217 0)
(1.27547 0.0942664 0)
(1.28042 0.0835962 0)
(1.28484 0.0732675 0)
(1.28883 0.0633158 0)
(1.29247 0.0537562 0)
(1.29584 0.0445871 0)
(1.29901 0.0357935 0)
(1.30203 0.0273495 0)
(1.30495 0.0192208 0)
(1.30781 0.0113656 0)
(1.31063 0.00373688 0)
(1.31346 -0.00371765 0)
(1.3163 -0.0110542 0)
(1.31918 -0.0183327 0)
(1.3221 -0.0256161 0)
(1.32507 -0.0329705 0)
(1.32807 -0.0404641 0)
(1.33111 -0.048167 0)
(1.33415 -0.0561501 0)
(1.33716 -0.0644838 0)
(1.3401 -0.0732357 0)
(1.34292 -0.0824681 0)
(1.34554 -0.0922342 0)
(1.34788 -0.102574 0)
(1.34984 -0.113508 0)
(1.35132 -0.125034 0)
(1.35222 -0.137121 0)
(1.35242 -0.149704 0)
(1.35183 -0.162688 0)
(1.35037 -0.175944 0)
(1.00067 0.014412 0)
(1.00492 0.0429569 0)
(1.01421 0.0700569 0)
(1.02752 0.0947399 0)
(1.04391 0.116289 0)
(1.06259 0.134229 0)
(1.08277 0.148322 0)
(1.10367 0.158551 0)
(1.12467 0.165076 0)
(1.14522 0.168191 0)
(1.16494 0.168275 0)
(1.18355 0.16575 0)
(1.20088 0.161052 0)
(1.21685 0.154604 0)
(1.23142 0.146797 0)
(1.24464 0.137983 0)
(1.25658 0.128466 0)
(1.26733 0.118506 0)
(1.27698 0.108314 0)
(1.28565 0.0980618 0)
(1.29344 0.0878812 0)
(1.30046 0.0778714 0)
(1.30682 0.0681024 0)
(1.31259 0.0586197 0)
(1.31787 0.0494484 0)
(1.32272 0.0405963 0)
(1.32722 0.0320573 0)
(1.33142 0.023814 0)
(1.33538 0.0158394 0)
(1.33914 0.00809909 0)
(1.34274 0.000552296 0)
(1.3462 -0.0068468 0)
(1.34957 -0.0141483 0)
(1.35284 -0.0214059 0)
(1.35605 -0.0286761 0)
(1.35919 -0.0360178 0)
(1.36226 -0.0434918 0)
(1.36526 -0.0511594 0)
(1.36817 -0.0590821 0)
(1.37095 -0.0673196 0)
(1.37358 -0.0759281 0)
(1.37599 -0.0849578 0)
(1.37814 -0.0944501 0)
(1.37995 -0.104434 0)
(1.38133 -0.114921 0)
(1.38221 -0.125903 0)
(1.3825 -0.13735 0)
(1.3821 -0.149204 0)
(1.38095 -0.161382 0)
(1.37898 -0.173779 0)
(1.0006 0.0121023 0)
(1.00441 0.0362025 0)
(1.01285 0.0592704 0)
(1.02506 0.0805134 0)
(1.04031 0.0993218 0)
(1.05797 0.11526 0)
(1.07736 0.128075 0)
(1.09782 0.137686 0)
(1.11877 0.144162 0)
(1.13969 0.14769 0)
(1.16018 0.148539 0)
(1.17993 0.147032 0)
(1.19872 0.143514 0)
(1.21638 0.138332 0)
(1.23286 0.131817 0)
(1.24811 0.124276 0)
(1.26215 0.115981 0)
(1.27502 0.107169 0)
(1.28679 0.0980394 0)
(1.29752 0.0887557 0)
(1.3073 0.0794489 0)
(1.31621 0.0702195 0)
(1.32434 0.0611418 0)
(1.33176 0.0522668 0)
(1.33855 0.043626 0)
(1.34479 0.0352341 0)
(1.35054 0.0270919 0)
(1.35586 0.0191887 0)
(1.36081 0.0115043 0)
(1.36542 0.00401063 0)
(1.36975 -0.00332672 0)
(1.37382 -0.0105474 0)
(1.37768 -0.0176951 0)
(1.38134 -0.0248172 0)
(1.38481 -0.0319636 0)
(1.38812 -0.0391861 0)
(1.39126 -0.0465376 0)
(1.39422 -0.0540714 0)
(1.397 -0.0618397 0)
(1.39957 -0.0698928 0)
(1.4019 -0.0782767 0)
(1.40394 -0.0870314 0)
(1.40566 -0.0961885 0)
(1.40698 -0.105768 0)
(1.40785 -0.115776 0)
(1.40819 -0.1262 0)
(1.40793 -0.137011 0)
(1.407 -0.148158 0)
(1.40534 -0.159568 0)
(1.40291 -0.171153 0)
(1.00054 0.0100194 0)
(1.00401 0.0300627 0)
(1.01173 0.0493748 0)
(1.02303 0.0673159 0)
(1.0373 0.0833773 0)
(1.05403 0.0971766 0)
(1.07265 0.108468 0)
(1.0926 0.11714 0)
(1.11335 0.123205 0)
(1.13441 0.126773 0)
(1.15537 0.128032 0)
(1.17592 0.12722 0)
(1.19578 0.124605 0)
(1.21476 0.120465 0)
(1.23275 0.115074 0)
(1.24965 0.108693 0)
(1.26544 0.101555 0)
(1.28011 0.0938705 0)
(1.29368 0.0858192 0)
(1.3062 0.0775518 0)
(1.31772 0.069191 0)
(1.3283 0.0608336 0)
(1.33801 0.0525529 0)
(1.34691 0.0444014 0)
(1.35507 0.0364131 0)
(1.36257 0.028607 0)
(1.36945 0.0209884 0)
(1.37579 0.0135517 0)
(1.38163 0.00628214 0)
(1.38703 -0.000842794 0)
(1.39202 -0.00785175 0)
(1.39665 -0.0147785 0)
(1.40095 -0.0216607 0)
(1.40494 -0.0285395 0)
(1.40866 -0.0354579 0)
(1.4121 -0.042461 0)
(1.41529 -0.0495941 0)
(1.41821 -0.0569026 0)
(1.42086 -0.0644305 0)
(1.42322 -0.0722191 0)
(1.42527 -0.0803058 0)
(1.42697 -0.0887218 0)
(1.42829 -0.0974905 0)
(1.42917 -0.106625 0)
(1.42956 -0.116126 0)
(1.42941 -0.125981 0)
(1.42865 -0.13616 0)
(1.42724 -0.146617 0)
(1.42512 -0.157291 0)
(1.42225 -0.168104 0)
(1.00049 0.00811867 0)
(1.00368 0.0244222 0)
(1.01084 0.0402146 0)
(1.02138 0.0549867 0)
(1.03481 0.0683233 0)
(1.05073 0.0799004 0)
(1.06865 0.089495 0)
(1.08808 0.0969884 0)
(1.10854 0.102358 0)
(1.12958 0.105663 0)
(1.15081 0.10703 0)
(1.17188 0.106631 0)
(1.19252 0.104669 0)
(1.2125 0.101362 0)
(1.23166 0.0969294 0)
(1.24987 0.0915845 0)
(1.26708 0.0855244 0)
(1.28322 0.0789269 0)
(1.2983 0.0719478 0)
(1.31232 0.0647199 0)
(1.32532 0.057353 0)
(1.33732 0.0499351 0)
(1.34839 0.0425342 0)
(1.35857 0.0352002 0)
(1.36792 0.027967 0)
(1.37651 0.0208542 0)
(1.38439 0.0138698 0)
(1.39161 0.00701142 0)
(1.39824 0.00026824 0)
(1.40431 -0.00637769 0)
(1.40988 -0.0129501 0)
(1.41498 -0.0194774 0)
(1.41966 -0.0259916 0)
(1.42394 -0.0325278 0)
(1.42784 -0.0391228 0)
(1.43139 -0.0458147 0)
(1.43459 -0.0526419 0)
(1.43744 -0.0596424 0)
(1.43995 -0.0668523 0)
(1.4421 -0.0743052 0)
(1.44388 -0.0820306 0)
(1.44525 -0.0900523 0)
(1.44619 -0.0983868 0)
(1.44666 -0.107042 0)
(1.44661 -0.116014 0)
(1.44601 -0.12529 0)
(1.44479 -0.13484 0)
(1.44293 -0.144623 0)
(1.44038 -0.154585 0)
(1.43712 -0.164661 0)
(1.00045 0.00636278 0)
(1.00342 0.0191824 0)
(1.01012 0.031652 0)
(1.02005 0.0433754 0)
(1.0328 0.0540235 0)
(1.04803 0.0633322 0)
(1.06534 0.0711109 0)
(1.08428 0.0772473 0)
(1.10443 0.0817031 0)
(1.12536 0.0845051 0)
(1.1467 0.0857343 0)
(1.16811 0.0855121 0)
(1.18929 0.0839878 0)
(1.20999 0.0813266 0)
(1.23003 0.077699 0)
(1.24926 0.073273 0)
(1.26757 0.0682072 0)
(1.28489 0.0626466 0)
(1.30117 0.0567199 0)
(1.31641 0.0505382 0)
(1.33061 0.0441946 0)
(1.34378 0.0377645 0)
(1.35597 0.031307 0)
(1.36721 0.0248659 0)
(1.37755 0.0184715 0)
(1.38704 0.0121423 0)
(1.39574 0.00588635 0)
(1.4037 -0.000297265 0)
(1.41097 -0.00641682 0)
(1.4176 -0.0124869 0)
(1.42364 -0.018527 0)
(1.42912 -0.024561 0)
(1.43409 -0.0306159 0)
(1.43857 -0.0367209 0)
(1.4426 -0.042907 0)
(1.4462 -0.049206 0)
(1.44937 -0.0556496 0)
(1.45213 -0.0622687 0)
(1.45448 -0.0690927 0)
(1.45641 -0.0761478 0)
(1.4579 -0.0834567 0)
(1.45895 -0.0910367 0)
(1.45953 -0.0988986 0)
(1.4596 -0.107045 0)
(1.45914 -0.115471 0)
(1.45811 -0.12416 0)
(1.45647 -0.133085 0)
(1.45419 -0.142208 0)
(1.45124 -0.151482 0)
(1.44761 -0.160849 0)
(1.00042 0.00471969 0)
(1.00323 0.0142572 0)
(1.00957 0.0235631 0)
(1.01902 0.032341 0)
(1.03123 0.0403413 0)
(1.0459 0.0473591 0)
(1.06269 0.053242 0)
(1.08121 0.0578938 0)
(1.10106 0.0612729 0)
(1.12185 0.0633871 0)
(1.14321 0.0642858 0)
(1.16481 0.0640508 0)
(1.18634 0.0627874 0)
(1.20755 0.060615 0)
(1.22823 0.0576597 0)
(1.2482 0.0540472 0)
(1.26733 0.0498982 0)
(1.28554 0.0453239 0)
(1.30274 0.0404243 0)
(1.31892 0.0352863 0)
(1.33404 0.0299833 0)
(1.34812 0.024575 0)
(1.36118 0.0191087 0)
(1.37324 0.0136194 0)
(1.38435 0.00813155 0)
(1.39455 0.00265976 0)
(1.40388 -0.00278964 0)
(1.4124 -0.00821761 0)
(1.42016 -0.0136312 0)
(1.4272 -0.0190428 0)
(1.43357 -0.0244687 0)
(1.43932 -0.0299287 0)
(1.44448 -0.0354452 0)
(1.44908 -0.0410424 0)
(1.45316 -0.0467458 0)
(1.45673 -0.0525812 0)
(1.45983 -0.0585742 0)
(1.46245 -0.0647493 0)
(1.4646 -0.0711293 0)
(1.46628 -0.0777342 0)
(1.46749 -0.0845804 0)
(1.46822 -0.0916795 0)
(1.46843 -0.0990374 0)
(1.46812 -0.106653 0)
(1.46726 -0.114519 0)
(1.46582 -0.122616 0)
(1.46378 -0.130921 0)
(1.46111 -0.139397 0)
(1.45778 -0.148003 0)
(1.45379 -0.156687 0)
(1.0004 0.00316131 0)
(1.00308 0.00956955 0)
(1.00917 0.0158349 0)
(1.01826 0.0217507 0)
(1.03006 0.0271415 0)
(1.04431 0.0318606 0)
(1.0607 0.0357966 0)
(1.07888 0.0388758 0)
(1.09847 0.041062 0)
(1.11911 0.0423535 0)
(1.14044 0.0427778 0)
(1.16213 0.0423862 0)
(1.18387 0.0412472 0)
(1.20541 0.0394406 0)
(1.2265 0.0370518 0)
(1.24698 0.0341671 0)
(1.26668 0.03087 0)
(1.2855 0.0272381 0)
(1.30335 0.0233415 0)
(1.32018 0.0192412 0)
(1.33596 0.014989 0)
(1.35069 0.0106268 0)
(1.36436 0.00618761 0)
(1.377 0.00169561 0)
(1.38864 -0.00283288 0)
(1.39932 -0.00738865 0)
(1.40908 -0.0119687 0)
(1.41798 -0.0165755 0)
(1.42605 -0.0212161 0)
(1.43335 -0.0259014 0)
(1.43991 -0.0306454 0)
(1.44579 -0.0354645 0)
(1.45103 -0.0403773 0)
(1.45565 -0.0454031 0)
(1.45969 -0.0505625 0)
(1.46317 -0.0558757 0)
(1.46612 -0.0613626 0)
(1.46855 -0.067042 0)
(1.47047 -0.0729307 0)
(1.47188 -0.0790428 0)
(1.47278 -0.0853894 0)
(1.47316 -0.0919768 0)
(1.47302 -0.0988069 0)
(1.47233 -0.105875 0)
(1.47108 -0.113171 0)
(1.46925 -0.120677 0)
(1.46681 -0.128367 0)
(1.46376 -0.13621 0)
(1.46008 -0.144166 0)
(1.45575 -0.152191 0)
(1.00039 0.0016623 0)
(1.00299 0.00504927 0)
(1.0089 0.00836237 0)
(1.01776 0.0114781 0)
(1.02928 0.0142909 0)
(1.04324 0.0167114 0)
(1.05935 0.0186706 0)
(1.07728 0.0201214 0)
(1.09668 0.0210385 0)
(1.11719 0.0214168 0)
(1.13846 0.0212688 0)
(1.16017 0.0206213 0)
(1.18201 0.0195116 0)
(1.20372 0.017984 0)
(1.22505 0.0160865 0)
(1.24582 0.013868 0)
(1.26585 0.0113759 0)
(1.28504 0.00865433 0)
(1.30327 0.00574288 0)
(1.32049 0.00267586 0)
(1.33665 -0.000518138 0)
(1.35174 -0.00381632 0)
(1.36577 -0.00720157 0)
(1.37873 -0.0106621 0)
(1.39067 -0.0141911 0)
(1.40161 -0.0177862 0)
(1.41159 -0.0214488 0)
(1.42066 -0.0251841 0)
(1.42886 -0.0289997 0)
(1.43624 -0.0329061 0)
(1.44285 -0.0369155 0)
(1.44873 -0.0410415 0)
(1.45391 -0.0452991 0)
(1.45844 -0.0497037 0)
(1.46235 -0.0542709 0)
(1.46566 -0.0590161 0)
(1.46839 -0.0639538 0)
(1.47057 -0.0690974 0)
(1.47221 -0.0744582 0)
(1.47331 -0.0800453 0)
(1.47387 -0.0858645 0)
(1.4739 -0.091918 0)
(1.47338 -0.0982035 0)
(1.47231 -0.104714 0)
(1.47068 -0.111436 0)
(1.46846 -0.118352 0)
(1.46565 -0.125437 0)
(1.46223 -0.132661 0)
(1.4582 -0.139987 0)
(1.45354 -0.147375 0)
(1.00038 0.00019917 0)
(1.00294 0.000630585 0)
(1.00876 0.00104607 0)
(1.01749 0.00140127 0)
(1.02887 0.00165805 0)
(1.04267 0.00178383 0)
(1.05862 0.0017527 0)
(1.07641 0.00154608 0)
(1.09568 0.00115267 0)
(1.1161 0.000567867 0)
(1.13732 -0.000207114 0)
(1.159 -0.00116639 0)
(1.18085 -0.00230065 0)
(1.2026 -0.00359834 0)
(1.224 -0.00504685 0)
(1.24486 -0.00663344 0)
(1.265 -0.00834604 0)
(1.2843 -0.0101739 0)
(1.30266 -0.0121081 0)
(1.32 -0.0141416 0)
(1.33628 -0.0162695 0)
(1.35148 -0.0184894 0)
(1.36559 -0.0208007 0)
(1.37863 -0.023205 0)
(1.39061 -0.0257059 0)
(1.40157 -0.0283085 0)
(1.41155 -0.0310198 0)
(1.42059 -0.0338477 0)
(1.42873 -0.0368017 0)
(1.43603 -0.0398918 0)
(1.44252 -0.043129 0)
(1.44824 -0.0465247 0)
(1.45325 -0.0500904 0)
(1.45757 -0.053838 0)
(1.46124 -0.0577786 0)
(1.46429 -0.0619229 0)
(1.46674 -0.0662806 0)
(1.46861 -0.0708601 0)
(1.46991 -0.0756677 0)
(1.47066 -0.0807078 0)
(1.47086 -0.0859816 0)
(1.47051 -0.0914873 0)
(1.46961 -0.0972191 0)
(1.46815 -0.103167 0)
(1.46613 -0.109317 0)
(1.46353 -0.11565 0)
(1.46035 -0.12214 0)
(1.45657 -0.128761 0)
(1.45221 -0.135477 0)
(1.44723 -0.142251 0)
(1.00038 -0.00125052 0)
(1.00293 -0.00374965 0)
(1.00874 -0.00621032 0)
(1.01746 -0.00859904 0)
(1.02882 -0.0108871 0)
(1.04259 -0.0130509 0)
(1.05852 -0.0150727 0)
(1.07627 -0.016942 0)
(1.0955 -0.018655 0)
(1.11586 -0.0202147 0)
(1.13702 -0.0216299 0)
(1.15864 -0.0229144 0)
(1.18042 -0.0240857 0)
(1.20209 -0.0251643 0)
(1.2234 -0.0261721 0)
(1.24416 -0.0271322 0)
(1.26419 -0.0280676 0)
(1.28338 -0.0290008 0)
(1.3016 -0.0299536 0)
(1.31881 -0.0309464 0)
(1.33494 -0.0319984 0)
(1.34998 -0.0331276 0)
(1.36392 -0.0343503 0)
(1.37677 -0.035682 0)
(1.38855 -0.0371368 0)
(1.39931 -0.0387278 0)
(1.40906 -0.0404673 0)
(1.41786 -0.0423669 0)
(1.42576 -0.0444374 0)
(1.43278 -0.0466891 0)
(1.43899 -0.0491319 0)
(1.44443 -0.051775 0)
(1.44912 -0.0546271 0)
(1.45312 -0.0576962 0)
(1.45645 -0.0609895 0)
(1.45915 -0.0645134 0)
(1.46123 -0.0682731 0)
(1.46273 -0.072272 0)
(1.46365 -0.0765123 0)
(1.46401 -0.0809936 0)
(1.46381 -0.0857133 0)
(1.46306 -0.0906657 0)
(1.46175 -0.0958422 0)
(1.4599 -0.10123 0)
(1.45748 -0.106814 0)