/*--------------------------------*- C++ -*----------------------------------*\
| =========                 |                                                 |
| \\      /  F ield         | OpenFOAM: The Open Source CFD Toolbox           |
|  \\    /   O peration     | Version:  2306                                  |
|   \\  /    A nd           | Website:  www.openfoam.com                      |
|    \\/     M anipulation  |                                                 |
\*---------------------------------------------------------------------------*/
FoamFile
{
    version     2.0;
    format      ascii;
    arch        "LSB;label=32;scalar=64";
    class       volScalarField;
    location    "5.04";
    object      p;
}
// * * * * * * * * * * * * * * * * * * * * * * * * * * * * * * * * * * * * * //

dimensions      [0 2 -2 0 0 0 0];

internalField   nonuniform List<scalar> 
1900
(
0.0552864
0.0310663
0.0106754
-0.00466337
-0.0156811
-0.0262327
-0.0366693
-0.0488265
-0.0613718
-0.0754131
0.0260254
0.0178274
0.00651257
-0.00503856
-0.0160608
-0.0262458
-0.0366746
-0.0471827
-0.0586728
-0.0697206
0.0169305
0.0124404
0.00492577
-0.00444093
-0.0145226
-0.0244991
-0.0342753
-0.0438243
-0.0532472
-0.0623271
0.0112273
0.00815427
0.00250515
-0.00514214
-0.0139922
-0.0232306
-0.0324194
-0.0413307
-0.0499207
-0.0580782
0.00900053
0.00646527
0.00172683
-0.00492091
-0.0128992
-0.021502
-0.030176
-0.0385987
-0.0466213
-0.0541549
0.00963211
0.00715123
0.00254025
-0.00392517
-0.0116642
-0.0199685
-0.0282795
-0.0362801
-0.0438465
-0.0509499
0.0130851
0.0101388
0.00485707
-0.00222698
-0.0102885
-0.0185772
-0.0266275
-0.0342621
-0.0414731
-0.0482955
0.0197821
0.0154861
0.00858748
0.000117208
-0.00870471
-0.0171317
-0.0249683
-0.0323083
-0.0393013
-0.0460096
0.0299211
0.0218214
0.0113843
0.000921719
-0.0083876
-0.0165023
-0.023875
-0.0309285
-0.0378267
-0.0445295
0.0587705
0.0360975
0.0163894
0.00232487
-0.00733496
-0.0150334
-0.0222666
-0.02949
-0.0366536
-0.0435524
-0.0985899
-0.0986234
-0.0986682
-0.0987223
-0.0987826
-0.0988486
-0.09892
-0.0989956
-0.099074
-0.0991538
-0.0992331
-0.0993103
-0.0993836
-0.0994512
-0.0995113
-0.0995623
-0.0996026
-0.0996307
-0.0996451
-0.0996445
-0.099628
-0.0995943
-0.0995428
-0.0994727
-0.0993835
-0.0992746
-0.0991458
-0.0989967
-0.098827
-0.0986366
-0.0984249
-0.0981917
-0.0979364
-0.0976584
-0.0973567
-0.0970303
-0.0966775
-0.0962956
-0.0958808
-0.0954268
-0.0949248
-0.0943618
-0.0937202
-0.0929773
-0.0921051
-0.091071
-0.0898385
-0.0883682
-0.0866168
-0.0845359
-0.0820717
-0.0791664
-0.0757583
-0.0717863
-0.0672007
-0.0619676
-0.0560741
-0.0495421
-0.0424254
-0.0347993
-0.0267654
-0.0184563
-0.0100242
-0.00162303
0.0065853
0.014445
0.02181
0.0285595
0.0345749
0.0397896
0.0441407
0.0476135
0.0501882
0.0518967
0.0527582
0.0528367
0.0521728
0.0508502
0.0489146
0.0464565
0.0435128
0.0401721
0.0364522
0.0324365
0.0281146
0.0235684
0.018743
0.0137394
0.00841994
0.00297572
-0.0985852
-0.0986169
-0.098644
-0.0986854
-0.0987366
-0.098796
-0.0988621
-0.0989332
-0.0990077
-0.0990841
-0.0991606
-0.0992354
-0.0993068
-0.0993729
-0.0994319
-0.0994821
-0.0995218
-0.0995495
-0.0995637
-0.0995631
-0.0995464
-0.0995127
-0.099461
-0.0993905
-0.0993006
-0.0991907
-0.0990604
-0.0989093
-0.0987369
-0.0985431
-0.0983272
-0.0980889
-0.0978273
-0.0975416
-0.0972306
-0.0968929
-0.0965263
-0.0961281
-0.0956943
-0.0952191
-0.0946946
-0.0941101
-0.0934514
-0.0927003
-0.0918339
-0.0908244
-0.0896393
-0.0882412
-0.086587
-0.0846248
-0.0822924
-0.0795203
-0.0762364
-0.0723683
-0.0678658
-0.0627264
-0.0569315
-0.0504845
-0.0434222
-0.035828
-0.0278081
-0.0194963
-0.0110461
-0.00261975
0.00561668
0.0135041
0.0208873
0.0276794
0.0337038
0.0389342
0.0432978
0.0467829
0.0493682
0.0510891
0.0519601
0.0520535
0.0514022
0.0501007
0.0481835
0.0457552
0.0428378
0.0395373
0.035852
0.0318867
0.0276052
0.0231158
0.0183387
0.0133968
0.00817049
0.00283418
-0.0984678
-0.0985491
-0.0985946
-0.098648
-0.0987041
-0.0987655
-0.0988332
-0.0989063
-0.0989831
-0.0990623
-0.0991419
-0.0992201
-0.0992949
-0.0993646
-0.0994272
-0.0994809
-0.099524
-0.099555
-0.0995721
-0.0995739
-0.0995594
-0.0995273
-0.0994767
-0.0994068
-0.0993171
-0.0992068
-0.0990757
-0.0989235
-0.0987499
-0.0985548
-0.0983379
-0.0980989
-0.0978372
-0.0975518
-0.0972415
-0.0969048
-0.0965396
-0.0961427
-0.0957102
-0.0952363
-0.094714
-0.0941347
-0.0934877
-0.0927598
-0.0919338
-0.0909867
-0.0898875
-0.0885979
-0.087072
-0.085251
-0.0830585
-0.0804153
-0.0772727
-0.0735452
-0.0691572
-0.0640627
-0.0582689
-0.0518049
-0.0447209
-0.037107
-0.029068
-0.0207218
-0.0122714
-0.00385115
0.00437032
0.0122442
0.019612
0.0263658
0.0323708
0.0375729
0.0419054
0.0453612
0.0479191
0.0496192
0.0504752
0.0505645
0.0499182
0.0486352
0.0467478
0.0443637
0.0415028
0.038273
0.0346727
0.0308056
0.0266421
0.0222823
0.0176663
0.0128971
0.00789087
0.00276555
-0.0985496
-0.0986235
-0.0986278
-0.0986537
-0.0986994
-0.0987615
-0.0988348
-0.0989154
-0.0990007
-0.0990886
-0.0991767
-0.0992629
-0.0993452
-0.0994216
-0.0994902
-0.0995491
-0.0995965
-0.0996308
-0.0996506
-0.0996544
-0.0996409
-0.0996092
-0.0995582
-0.0994872
-0.0993956
-0.0992829
-0.0991488
-0.098993
-0.0988156
-0.0986167
-0.0983963
-0.0981542
-0.0978901
-0.0976029
-0.0972915
-0.0969542
-0.096589
-0.0961932
-0.0957632
-0.0952944
-0.0947804
-0.0942137
-0.0935867
-0.0928903
-0.0921107
-0.0912261
-0.0902039
-0.0890013
-0.0875742
-0.0858604
-0.083778
-0.0812402
-0.0781482
-0.0744604
-0.0701038
-0.0650484
-0.0592898
-0.0528591
-0.0458106
-0.0382387
-0.030253
-0.0219914
-0.0136275
-0.00531574
0.00277877
0.0105102
0.0177253
0.0243154
0.0301655
0.035216
0.0394078
0.0427362
0.0451872
0.0468024
0.0476016
0.0476608
0.0470168
0.0457643
0.0439414
0.0416481
0.0389121
0.0358302
0.0324113
0.0287453
0.0248187
0.0207145
0.0163963
0.0119427
0.00729532
0.00253454
-0.0982243
-0.0984296
-0.0985204
-0.0986244
-0.0987231
-0.0988164
-0.098909
-0.0990041
-0.0991016
-0.0991996
-0.0992964
-0.09939
-0.0994783
-0.0995594
-0.0996314
-0.0996927
-0.0997415
-0.0997763
-0.0997955
-0.0997977
-0.0997817
-0.0997466
-0.0996915
-0.0996159
-0.0995193
-0.0994011
-0.0992612
-0.0990997
-0.098917
-0.0987134
-0.0984891
-0.0982444
-0.097979
-0.0976918
-0.0973808
-0.0970447
-0.0966819
-0.0962899
-0.0958652
-0.0954036
-0.0948992
-0.0943448
-0.0937349
-0.0930638
-0.0923155
-0.0914691
-0.0904901
-0.089329
-0.0879251
-0.0862226
-0.0841425
-0.0816037
-0.0785203
-0.0748322
-0.0704807
-0.0654423
-0.0597179
-0.0533446
-0.0463843
-0.0389329
-0.0311083
-0.0230488
-0.0149144
-0.00686484
0.000941635
0.00836351
0.0152622
0.0215314
0.0270737
0.0318325
0.035761
0.0388566
0.0411174
0.0425845
0.0432875
0.0432973
0.0426594
0.0414591
0.0397428
0.037598
0.0350614
0.0322146
0.0290787
0.025726
0.0221593
0.0184422
0.0145587
0.0105668
0.00643444
0.00222192
-0.0990557
-0.0990784
-0.0989774
-0.0989325
-0.0989432
-0.099001
-0.0990889
-0.0991898
-0.0992928
-0.0993944
-0.0994927
-0.0995857
-0.0996719
-0.0997494
-0.0998169
-0.0998726
-0.0999153
-0.0999435
-0.0999558
-0.0999507
-0.0999274
-0.0998848
-0.0998223
-0.0997395
-0.0996362
-0.0995117
-0.0993657
-0.0991987
-0.0990112
-0.0988036
-0.0985764
-0.0983297
-0.0980632
-0.0977755
-0.0974641
-0.0971299
-0.0967714
-0.0963848
-0.0959663
-0.0955119
-0.0950159
-0.0944704
-0.0938636
-0.0931855
-0.0924238
-0.0915554
-0.0905428
-0.0893406
-0.0878901
-0.0861295
-0.0839823
-0.0813739
-0.0782271
-0.0744865
-0.0701082
-0.0650771
-0.059402
-0.0531265
-0.0463198
-0.0390819
-0.0315325
-0.0238105
-0.0160649
-0.00844849
-0.00110712
0.00582673
0.012233
0.0180148
0.0230932
0.0274199
0.0309645
0.0337285
0.0357238
0.0369909
0.0375699
0.0375253
0.0369102
0.0357985
0.034243
0.0323165
0.0300627
0.0275467
0.0247984
0.0218725
0.0187838
0.0155776
0.0122542
0.00885321
0.00536451
0.00182859
-0.097731
-0.0983767
-0.0985795
-0.0988358
-0.099051
-0.099214
-0.0993361
-0.099437
-0.0995298
-0.099618
-0.0997019
-0.0997801
-0.0998514
-0.0999144
-0.0999678
-0.10001
-0.100041
-0.100058
-0.10006
-0.100045
-0.100013
-0.0999631
-0.0998936
-0.0998044
-0.0996951
-0.0995652
-0.0994138
-0.0992432
-0.0990535
-0.0988443
-0.098616
-0.0983689
-0.0981026
-0.0978159
-0.0975051
-0.0971653
-0.0967968
-0.0963983
-0.095965
-0.095491
-0.0949689
-0.0943905
-0.0937448
-0.0930194
-0.0921955
-0.0912478
-0.0901383
-0.0888218
-0.0872409
-0.0853356
-0.0830383
-0.0802848
-0.0770133
-0.0731792
-0.0687527
-0.0637307
-0.0581328
-0.052011
-0.0454405
-0.0385243
-0.0313804
-0.0241437
-0.0169516
-0.00994369
-0.00324672
0.00302365
0.00877019
0.013912
0.0183917
0.0221734
0.0252446
0.0276128
0.0293025
0.030353
0.0308121
0.030736
0.0301818
0.0292106
0.0278777
0.0262403
0.0243453
0.022241
0.0199625
0.0175478
0.0150197
0.0124068
0.00972155
0.00698654
0.00420746
0.0014077
-0.102441
-0.101062
-0.100434
-0.1
-0.0997733
-0.0996839
-0.0996719
-0.0996965
-0.0997355
-0.0997814
-0.0998309
-0.0998805
-0.099928
-0.0999718
-0.10001
-0.10004
-0.10006
-0.100068
-0.100062
-0.10004
-0.100002
-0.0999464
-0.0998734
-0.0997825
-0.0996726
-0.0995422
-0.0993892
-0.099212
-0.0990142
-0.0987963
-0.0985574
-0.0982964
-0.0980119
-0.097702
-0.0973636
-0.0969936
-0.0965892
-0.0961466
-0.0956601
-0.0951226
-0.0945251
-0.0938576
-0.0931068
-0.0922569
-0.0912867
-0.0901696
-0.0888695
-0.0873437
-0.0855413
-0.0834092
-0.0808919
-0.0779388
-0.0745066
-0.0705666
-0.0661054
-0.0611332
-0.0556811
-0.0498075
-0.04359
-0.0371296
-0.0305376
-0.0239388
-0.0174545
-0.0112071
-0.00530107
0.000170983
0.00513831
0.00954103
0.0133447
0.016528
0.0190943
0.0210565
0.0224473
0.0233025
0.0236722
0.023603
0.0231514
0.0223652
0.0212986
0.0199939
0.0184982
0.0168441
0.0150694
0.0131964
0.011254
0.00925557
0.00722264
0.00516198
0.0030897
0.00100931
-0.0966024
-0.0976872
-0.098524
-0.0991356
-0.0994523
-0.0995712
-0.0996059
-0.0996199
-0.0996357
-0.099666
-0.099705
-0.0997455
-0.0997858
-0.0998243
-0.0998586
-0.0998866
-0.0999072
-0.0999204
-0.0999226
-0.0999072
-0.0998718
-0.0998161
-0.0997395
-0.0996413
-0.0995215
-0.0993786
-0.0992099
-0.099014
-0.0987911
-0.098541
-0.0982625
-0.0979542
-0.0976139
-0.0972389
-0.0968256
-0.0963697
-0.0958663
-0.09531
-0.0946942
-0.0940109
-0.0932499
-0.0923996
-0.0914455
-0.0903709
-0.0891556
-0.0877743
-0.0861961
-0.084385
-0.0823008
-0.0799023
-0.0771489
-0.0740053
-0.0704425
-0.0664472
-0.0620222
-0.0571915
-0.0519962
-0.0464987
-0.040775
-0.0349186
-0.0290274
-0.0232078
-0.0175584
-0.0121766
-0.00714172
-0.00252614
0.00162379
0.00526955
0.00839751
0.0109986
0.0130872
0.0146781
0.0158072
0.0165044
0.0168183
0.0167848
0.0164575
0.0158714
0.0150791
0.0141087
0.0130074
0.0117932
0.0105061
0.00915369
0.00777019
0.00635357
0.0049345
0.0035033
0.00208811
0.000670836
-0.119265
-0.104356
-0.10243
-0.100953
-0.100039
-0.0996099
-0.0994351
-0.0993735
-0.0993558
-0.0993602
-0.0993998
-0.0994616
-0.0995263
-0.0995872
-0.0996424
-0.09969
-0.0997272
-0.0997505
-0.0997553
-0.0997363
-0.0996902
-0.0996153
-0.099511
-0.0993771
-0.0992143
-0.0990208
-0.0987935
-0.0985296
-0.0982269
-0.0978842
-0.0974998
-0.0970721
-0.0965991
-0.0960775
-0.0955036
-0.0948728
-0.0941799
-0.093419
-0.0925834
-0.0916651
-0.0906548
-0.0895412
-0.0883108
-0.0869474
-0.0854308
-0.0837393
-0.0818488
-0.0797332
-0.0773645
-0.074716
-0.0717633
-0.068488
-0.0648797
-0.0609406
-0.0566858
-0.052146
-0.0473643
-0.0423983
-0.0373146
-0.032191
-0.0271076
-0.0221483
-0.0173886
-0.012901
-0.00874197
-0.00496359
-0.00159408
0.00134504
0.00385386
0.00593079
0.00759532
0.00886142
0.00976522
0.0103309
0.0106045
0.0106128
0.010406
0.0100084
0.00947033
0.00880831
0.00806926
0.00725814
0.00641767
0.00554001
0.00466562
0.00377452
0.00290836
0.00203644
0.00120411
0.000366086
-0.0868465
-0.0932933
-0.0958005
-0.0966462
-0.0970969
-0.0975018
-0.0978766
-0.098192
-0.0984651
-0.0987028
-0.0989079
-0.0990827
-0.0992306
-0.0993554
-0.0994597
-0.0995427
-0.0996013
-0.0996308
-0.0996263
-0.0995834
-0.0994984
-0.0993694
-0.0991954
-0.0989762
-0.0987117
-0.098401
-0.0980422
-0.0976334
-0.0971729
-0.0966593
-0.0960913
-0.0954666
-0.0947818
-0.0940338
-0.0932192
-0.0923343
-0.0913744
-0.0903345
-0.0892085
-0.0879897
-0.08667
-0.0852404
-0.08369
-0.0820067
-0.0801768
-0.0781858
-0.0760183
-0.0736587
-0.0710912
-0.0683017
-0.0652795
-0.0620189
-0.0585212
-0.0547964
-0.0508636
-0.0467528
-0.0425022
-0.0381597
-0.0337787
-0.0294209
-0.0251488
-0.0210268
-0.0171125
-0.0134594
-0.0101074
-0.00708874
-0.00441779
-0.00210442
-0.000141945
0.00147372
0.00276341
0.00374197
0.00444394
0.0048916
0.00512744
0.0051735
0.00507495
0.00484866
0.00454017
0.00415722
0.00374435
0.00329625
0.00285638
0.00240314
0.00198185
0.0015532
0.00117044
0.000775797
0.000436531
7.10679e-05
-0.0809546
-0.0887272
-0.0927065
-0.0941302
-0.094566
-0.0949064
-0.0954088
-0.09603
-0.0966566
-0.0972146
-0.09768
-0.0980608
-0.0983751
-0.0986375
-0.0988553
-0.099029
-0.0991544
-0.0992257
-0.0992368
-0.0991829
-0.0990605
-0.098868
-0.0986048
-0.0982715
-0.097869
-0.0973982
-0.0968597
-0.0962537
-0.0955805
-0.0948399
-0.0940315
-0.0931545
-0.0922074
-0.0911885
-0.0900955
-0.0889261
-0.0876769
-0.0863443
-0.084924
-0.0834111
-0.0818001
-0.0800852
-0.0782595
-0.0763161
-0.0742473
-0.0720452
-0.0697018
-0.0672092
-0.0645599
-0.0617482
-0.0587713
-0.0556307
-0.052333
-0.0488909
-0.045324
-0.0416596
-0.0379326
-0.0341845
-0.0304606
-0.0268083
-0.0232747
-0.0199061
-0.0167442
-0.0138255
-0.0111764
-0.00881634
-0.00675302
-0.00498798
-0.00350869
-0.00230195
-0.00134504
-0.000619762
-9.5002e-05
0.000252407
0.000460337
0.000550727
0.000561331
0.00050494
0.000416446
0.000297685
0.000184068
6.49043e-05
-2.19464e-05
-0.000105458
-0.000141513
-0.000183089
-0.000169822
-0.000184996
-0.000137964
-0.000155316
-0.0707799
-0.0779611
-0.0833044
-0.0867997
-0.0889521
-0.0904174
-0.0916438
-0.0928107
-0.093931
-0.0949592
-0.0958575
-0.0966157
-0.0972442
-0.09776
-0.0981769
-0.0985016
-0.0987349
-0.098874
-0.0989153
-0.0988557
-0.0986937
-0.0984297
-0.0980651
-0.0976027
-0.0970458
-0.0963979
-0.0956624
-0.0948424
-0.0939407
-0.0929595
-0.0919003
-0.0907644
-0.0895522
-0.0882634
-0.0868971
-0.085452
-0.0839262
-0.0823174
-0.0806231
-0.0788404
-0.0769665
-0.0749983
-0.072933
-0.0707677
-0.0684999
-0.0661276
-0.0636489
-0.0610628
-0.0583692
-0.0555695
-0.0526667
-0.0496664
-0.0465771
-0.0434114
-0.0401875
-0.03693
-0.0336703
-0.0304459
-0.027297
-0.0242637
-0.021382
-0.0186822
-0.016187
-0.0139138
-0.0118754
-0.0100829
-0.00854214
-0.00724967
-0.00618649
-0.00532612
-0.00463921
-0.00410299
-0.003693
-0.00338879
-0.00316073
-0.00298646
-0.00283801
-0.00270538
-0.00257028
-0.00243549
-0.00228303
-0.00212353
-0.00193322
-0.00173607
-0.00149856
-0.0012674
-0.000988029
-0.000747707
-0.000447671
-0.000249588
-0.0655933
-0.0722195
-0.0776983
-0.081926
-0.0850261
-0.0873084
-0.0891135
-0.0906798
-0.0921156
-0.0934382
-0.0946276
-0.0956633
-0.0965389
-0.09726
-0.0978369
-0.0982781
-0.0985875
-0.0987653
-0.0988101
-0.0987206
-0.0984969
-0.0981411
-0.0976571
-0.0970499
-0.0963254
-0.0954897
-0.0945491
-0.093509
-0.0923748
-0.0911512
-0.0898419
-0.0884501
-0.0869777
-0.0854258
-0.0837946
-0.0820839
-0.0802928
-0.0784206
-0.0764664
-0.0744293
-0.072309
-0.0701055
-0.0678194
-0.065452
-0.0630054
-0.0604827
-0.0578879
-0.0552265
-0.0525045
-0.0497292
-0.0469084
-0.0440504
-0.0411647
-0.0382628
-0.0353597
-0.0324753
-0.0296369
-0.0268787
-0.0242399
-0.0217589
-0.0194656
-0.0173748
-0.0154848
-0.0137856
-0.0122702
-0.0109436
-0.0098152
-0.0088841
-0.00812778
-0.00750683
-0.00697954
-0.00652011
-0.00611677
-0.00576407
-0.00544899
-0.00515542
-0.00486321
-0.0045618
-0.00424192
-0.00390755
-0.00355725
-0.00320178
-0.00283497
-0.0024693
-0.00208822
-0.00171548
-0.00131912
-0.00095687
-0.000555694
-0.000260831
-0.0611168
-0.067399
-0.0728735
-0.0774455
-0.0811226
-0.0840381
-0.0864017
-0.0884127
-0.0902036
-0.0918327
-0.0933076
-0.094615
-0.0957415
-0.096682
-0.0974389
-0.0980173
-0.0984215
-0.0986536
-0.0987139
-0.0986035
-0.0983247
-0.0978822
-0.0972827
-0.0965346
-0.0956466
-0.0946276
-0.0934861
-0.0922303
-0.0908681
-0.089407
-0.0878534
-0.0862124
-0.0844876
-0.0826815
-0.0807955
-0.0788304
-0.0767864
-0.0746642
-0.0724643
-0.0701883
-0.0678382
-0.0654172
-0.0629295
-0.0603802
-0.0577758
-0.0551242
-0.0524349
-0.0497193
-0.0469899
-0.0442601
-0.0415423
-0.0388472
-0.0361844
-0.0335632
-0.0309936
-0.0284878
-0.0260625
-0.0237432
-0.0215674
-0.0195758
-0.0177978
-0.016237
-0.014863
-0.0136316
-0.0125132
-0.0115086
-0.0106349
-0.00990077
-0.00929383
-0.00877348
-0.00828833
-0.0078067
-0.00732472
-0.00685364
-0.00640422
-0.00597966
-0.00557373
-0.00517852
-0.0047838
-0.00438453
-0.0039764
-0.00356284
-0.00314236
-0.00272096
-0.00229291
-0.00186776
-0.00143428
-0.00102025
-0.000593926
-0.000251662
-0.0575712
-0.0636557
-0.0691176
-0.0738796
-0.0779185
-0.0812885
-0.0841108
-0.0865307
-0.0886683
-0.0905954
-0.0923377
-0.093893
-0.0952484
-0.0963929
-0.0973211
-0.0980326
-0.0985287
-0.0988108
-0.0988804
-0.0987401
-0.0983947
-0.0978522
-0.0971238
-0.0962222
-0.0951604
-0.0939499
-0.0926017
-0.0911264
-0.0895346
-0.087836
-0.0860395
-0.0841522
-0.08218
-0.0801269
-0.0779957
-0.0757883
-0.0735063
-0.0711516
-0.0687267
-0.0662351
-0.0636817
-0.061073
-0.0584173
-0.0557239
-0.0530037
-0.0502683
-0.0475312
-0.0448088
-0.0421203
-0.0394851
-0.036919
-0.0344328
-0.032033
-0.029724
-0.0275095
-0.0253926
-0.0233741
-0.0214605
-0.0196809
-0.0180741
-0.0166722
-0.0154807
-0.014453
-0.0135252
-0.0126537
-0.0118315
-0.0110684
-0.0103665
-0.00974182
-0.00919024
-0.00868082
-0.00818832
-0.00771224
-0.00724359
-0.00677676
-0.0063113
-0.00584721
-0.0053849
-0.00492564
-0.00447276
-0.00402785
-0.00359153
-0.00316017
-0.0027332
-0.00230599
-0.0018795
-0.00144954
-0.0010272
-0.000606384
-0.000252798
-0.0547279
-0.0607152
-0.066176
-0.0710447
-0.0753009
-0.0789773
-0.0821505
-0.0849194
-0.0873768
-0.089589
-0.0915882
-0.0933797
-0.0949531
-0.0962943
-0.0973912
-0.0982368
-0.0988275
-0.0991625
-0.0992426
-0.0990714
-0.098656
-0.0980074
-0.0971421
-0.0960798
-0.0948389
-0.0934345
-0.0918805
-0.0901901
-0.0883762
-0.0864513
-0.0844265
-0.0823114
-0.0801137
-0.0778394
-0.0754929
-0.0730775
-0.0705965
-0.0680533
-0.0654522
-0.0627987
-0.0601005
-0.0573675
-0.054612
-0.0518484
-0.0490921
-0.0463574
-0.0436578
-0.0410111
-0.0384409
-0.0359684
-0.0336075
-0.0313639
-0.0292364
-0.0272206
-0.025314
-0.0235174
-0.0218302
-0.02025
-0.0187844
-0.0174553
-0.0162755
-0.0152329
-0.0143068
-0.0134723
-0.0127047
-0.0119958
-0.0113494
-0.0107545
-0.0101699
-0.00956835
-0.00894999
-0.00834169
-0.00775988
-0.00721579
-0.00671294
-0.00624439
-0.00579605
-0.00535655
-0.00491968
-0.0044833
-0.00404758
-0.00361383
-0.00318272
-0.00275398
-0.00232552
-0.00189696
-0.00146738
-0.00104258
-0.000631378
-0.000249523
-0.0523941
-0.0583639
-0.0638356
-0.068765
-0.0731525
-0.0770356
-0.0804747
-0.0835371
-0.0862867
-0.0887733
-0.0910258
-0.0930511
-0.0948404
-0.0963771
-0.0976441
-0.098627
-0.0993166
-0.0997086
-0.0998031
-0.0996042
-0.0991214
-0.0983694
-0.0973695
-0.0961491
-0.0947323
-0.0931409
-0.0913945
-0.0895109
-0.0875066
-0.0853963
-0.0831928
-0.080907
-0.0785474
-0.0761208
-0.0736324
-0.0710867
-0.0684878
-0.0658402
-0.0631494
-0.0604225
-0.0576683
-0.0548986
-0.0521279
-0.0493737
-0.0466553
-0.0439899
-0.0413916
-0.038883
-0.0364844
-0.0342077
-0.0320557
-0.0300228
-0.0280995
-0.0262724
-0.0245339
-0.0228903
-0.0213628
-0.0199796
-0.0187558
-0.017686
-0.0167414
-0.0158339
-0.0149054
-0.0139494
-0.0129989
-0.0121174
-0.0113352
-0.0106478
-0.0100363
-0.00946387
-0.00890304
-0.00834962
-0.00780763
-0.00728675
-0.00679108
-0.00631501
-0.00585181
-0.00539662
-0.00494699
-0.00450245
-0.0040629
-0.0036273
-0.00319498
-0.00276538
-0.00233748
-0.00191052
-0.00148418
-0.00106361
-0.000658037
-0.000249909
-0.050909
-0.0568502
-0.0622939
-0.0672318
-0.0716886
-0.0757054
-0.0793313
-0.0826147
-0.0855979
-0.0883149
-0.0907858
-0.0930147
-0.0949922
-0.0966997
-0.0981156
-0.09922
-0.0999972
-0.100438
-0.100541
-0.100312
-0.099765
-0.0989213
-0.0978053
-0.0964423
-0.094863
-0.0930995
-0.0911817
-0.0891355
-0.0869823
-0.0847399
-0.0824221
-0.0800394
-0.0775998
-0.075109
-0.0725713
-0.0699903
-0.0673694
-0.0647124
-0.0620241
-0.0593107
-0.0565807
-0.0538449
-0.0511173
-0.0484154
-0.0457605
-0.0431776
-0.0406962
-0.03834
-0.0361244
-0.0340536
-0.032118
-0.0302944
-0.0285516
-0.02686
-0.025189
-0.0235343
-0.0219187
-0.0203845
-0.0189789
-0.0177344
-0.0166321
-0.0156441
-0.0147216
-0.0138429
-0.0130011
-0.0122057
-0.0114705
-0.0107998
-0.0101733
-0.00957046
-0.00898158
-0.00840771
-0.00785443
-0.00732595
-0.00682158
-0.00633811
-0.00587025
-0.00541295
-0.00496271
-0.00451765
-0.00407701
-0.00364035
-0.00320717
-0.0027771
-0.00234971
-0.0019246
-0.00150172
-0.00108456
-0.000677223
-0.000253159
-0.0500207
-0.0559831
-0.0614312
-0.0663917
-0.0709044
-0.0750124
-0.0787595
-0.0821892
-0.0853378
-0.0882273
-0.0908655
-0.0932482
-0.0953616
-0.0971857
-0.0986987
-0.0998799
-0.100713
-0.10119
-0.10131
-0.101079
-0.100516
-0.0996442
-0.0984926
-0.0970936
-0.0954801
-0.0936842
-0.0917358
-0.0896615
-0.0874839
-0.0852215
-0.0828888
-0.0804967
-0.0780533
-0.0755642
-0.0730338
-0.0704652
-0.0678615
-0.0652259
-0.0625622
-0.059876
-0.057174
-0.0544658
-0.0517631
-0.049081
-0.0464375
-0.0438529
-0.0413485
-0.0389438
-0.0366539
-0.0344864
-0.03244
-0.0305055
-0.028673
-0.026901
-0.0251842
-0.023525
-0.0219429
-0.0204691
-0.0191282
-0.017931
-0.0168587
-0.015866
-0.0149145
-0.0139918
-0.0131066
-0.0122794
-0.011523
-0.0108329
-0.010193
-0.00958399
-0.00899533
-0.00842558
-0.00787717
-0.0073522
-0.00684964
-0.00636563
-0.00589552
-0.00543551
-0.00498303
-0.00453653
-0.004095
-0.00365766
-0.00322395
-0.00279355
-0.00236643
-0.0019428
-0.00152285
-0.00110712
-0.000694187
-0.00026055
)
;

boundaryField
{
    fixedWalls
    {
        type            zeroGradient;
    }
    inflowWall
    {
        type            zeroGradient;
    }
    outflowWall
    {
        type            fixedValue;
        value           uniform 0;
    }
    frontAndBack
    {
        type            empty;
    }
}


// ************************************************************************* //
