/*--------------------------------*- C++ -*----------------------------------*\
| =========                 |                                                 |
| \\      /  F ield         | OpenFOAM: The Open Source CFD Toolbox           |
|  \\    /   O peration     | Version:  2306                                  |
|   \\  /    A nd           | Website:  www.openfoam.com                      |
|    \\/     M anipulation  |                                                 |
\*---------------------------------------------------------------------------*/
FoamFile
{
    version     2.0;
    format      ascii;
    arch        "LSB;label=32;scalar=64";
    class       volScalarField;
    location    "0.43";
    object      p;
}
// * * * * * * * * * * * * * * * * * * * * * * * * * * * * * * * * * * * * * //

dimensions      [0 2 -2 0 0 0 0];

internalField   nonuniform List<scalar> 
475
(
3.10561
2.38538
1.91904
1.57973
1.21457
2.5263
2.23345
1.9151
1.62935
1.36567
2.42081
2.22826
1.96241
1.70594
1.48612
2.5648
2.27871
1.98433
1.73984
1.54018
3.15591
2.44205
2.00678
1.73622
1.52641
0.991857
1.01109
1.05093
1.09424
1.12931
1.1493
1.15352
1.14351
1.12237
1.09347
1.05984
1.02378
0.986942
0.950336
0.914532
0.879779
0.846118
0.813475
0.781713
0.750677
0.720212
0.690179
0.660458
0.630953
0.601587
0.572305
0.543063
0.513835
0.484602
0.455352
0.42608
0.396784
0.367465
0.338125
0.308767
0.279393
0.250006
0.22061
0.191207
0.161797
0.132384
0.102969
0.0735516
0.0441334
0.0147134
0.975372
1.00017
1.03741
1.07707
1.10914
1.1284
1.13341
1.12537
1.10692
1.08102
1.05031
1.0169
0.982287
0.94745
0.912975
0.879165
0.84613
0.813866
0.782304
0.751342
0.720869
0.69078
0.660978
0.631383
0.60193
0.572568
0.543258
0.513973
0.484693
0.455408
0.42611
0.396796
0.367464
0.338116
0.308753
0.279377
0.249991
0.220595
0.191193
0.161786
0.132375
0.102962
0.0735462
0.0441297
0.0147121
0.917518
0.976685
1.0234
1.067
1.10079
1.12004
1.12438
1.11587
1.09748
1.07219
1.04251
1.01036
0.977077
0.943498
0.910132
0.877241
0.844923
0.813198
0.78202
0.751315
0.721002
0.691
0.661234
0.631642
0.602171
0.572779
0.543435
0.514116
0.484805
0.455492
0.42617
0.396836
0.367489
0.33813
0.308759
0.279377
0.249987
0.22059
0.191187
0.16178
0.13237
0.102957
0.0735424
0.0441271
0.0147113
0.836641
0.944462
1.01181
1.06204
1.09718
1.11491
1.1167
1.10605
1.08653
1.06113
1.03217
1.00127
0.969475
0.937438
0.905514
0.873882
0.842605
0.811701
0.781145
0.750891
0.720886
0.691081
0.661431
0.631895
0.602439
0.573036
0.543666
0.514313
0.484967
0.45562
0.426267
0.396907
0.367539
0.338163
0.308778
0.279387
0.24999
0.220588
0.191183
0.161774
0.132364
0.102951
0.073538
0.044124
0.0147097
0.563005
0.893775
1.01348
1.06741
1.09807
1.11023
1.10705
1.09299
1.07187
1.04643
1.01851
0.989303
0.959491
0.929456
0.89939
0.86938
0.839452
0.809624
0.779889
0.750233
0.720647
0.691118
0.661635
0.632186
0.602762
0.573355
0.543958
0.514567
0.485178
0.455789
0.426398
0.397005
0.367609
0.338209
0.308807
0.279403
0.249996
0.220588
0.191179
0.161768
0.132357
0.102945
0.0735325
0.0441199
0.0147073
0.931572
1.00643
1.0718
1.09917
1.10918
1.10758
1.0961
1.07759
1.05483
1.02968
1.00325
0.976124
0.948606
0.920813
0.892784
0.864532
0.836051
0.807376
0.778519
0.749509
0.720376
0.691147
0.661847
0.632495
0.603109
0.573699
0.544275
0.514844
0.48541
0.455975
0.426543
0.397113
0.367686
0.338262
0.30884
0.279421
0.250004
0.220589
0.191175
0.161762
0.132349
0.102938
0.0735265
0.0441155
0.0147045
1.16866
1.12997
1.13605
1.13219
1.11977
1.10326
1.08346
1.06121
1.03762
1.0134
0.98883
0.963954
0.938726
0.913069
0.88692
0.860245
0.833083
0.80543
0.777347
0.748905
0.720169
0.691202
0.66206
0.632791
0.603434
0.574018
0.544567
0.515098
0.485621
0.456145
0.426674
0.397211
0.367755
0.338308
0.308869
0.279437
0.25001
0.220589
0.191171
0.161755
0.132342
0.102931
0.073521
0.0441114
0.0147021
1.31735
1.2291
1.18537
1.15185
1.12147
1.09423
1.06916
1.04535
1.02232
0.999734
0.977226
0.954477
0.931236
0.90733
0.882665
0.85722
0.831016
0.80411
0.776589
0.748552
0.720094
0.691307
0.662269
0.63305
0.603705
0.574276
0.544799
0.515296
0.485784
0.456274
0.426772
0.397282
0.367805
0.338341
0.308889
0.279447
0.250013
0.220587
0.191166
0.16175
0.132337
0.102926
0.0735166
0.0441083
0.0147005
1.38108
1.27066
1.1984
1.14724
1.10828
1.07755
1.05212
1.02976
1.009
0.988851
0.968636
0.947896
0.926341
0.903809
0.880236
0.855624
0.830048
0.803603
0.776407
0.748586
0.720261
0.691545
0.662535
0.633313
0.603947
0.574489
0.544977
0.51544
0.485896
0.456357
0.426832
0.397323
0.367831
0.338355
0.308894
0.279447
0.25001
0.220581
0.19116
0.161743
0.132331
0.102921
0.0735128
0.0441057
0.0146997
1.35922
1.23823
1.15797
1.10567
1.07057
1.04569
1.02647
1.00989
0.994106
0.978041
0.961068
0.942835
0.923173
0.90203
0.879447
0.855515
0.830373
0.80418
0.777102
0.749307
0.720947
0.69216
0.663062
0.633747
0.604292
0.574753
0.545172
0.515577
0.485988
0.456414
0.426862
0.397334
0.36783
0.338346
0.308881
0.279431
0.249994
0.220567
0.191147
0.161732
0.132322
0.102914
0.0735074
0.044102
0.0146984
)
;

boundaryField
{
    fixedWalls
    {
        type            zeroGradient;
    }
    inflowWall
    {
        type            zeroGradient;
    }
    outflowWall
    {
        type            fixedValue;
        value           uniform 0;
    }
    frontAndBack
    {
        type            empty;
    }
}


// ************************************************************************* //
