/*--------------------------------*- C++ -*----------------------------------*\
| =========                 |                                                 |
| \\      /  F ield         | OpenFOAM: The Open Source CFD Toolbox           |
|  \\    /   O peration     | Version:  2306                                  |
|   \\  /    A nd           | Website:  www.openfoam.com                      |
|    \\/     M anipulation  |                                                 |
\*---------------------------------------------------------------------------*/
FoamFile
{
    version     2.0;
    format      ascii;
    arch        "LSB;label=32;scalar=64";
    class       surfaceScalarField;
    location    "0.43";
    object      phi;
}
// * * * * * * * * * * * * * * * * * * * * * * * * * * * * * * * * * * * * * //

dimensions      [0 3 -1 0 0 0 0];

oriented        oriented;

internalField   nonuniform List<scalar> 
94400
(
7.3514e-06
2.6486e-06
5.10551e-06
2.24589e-06
3.71254e-06
1.39297e-06
2.84757e-06
8.6497e-07
2.29182e-06
5.55758e-07
1.91981e-06
3.72003e-07
1.65897e-06
2.60842e-07
1.46775e-06
1.91221e-07
1.32225e-06
1.455e-07
1.20826e-06
1.13986e-07
1.11695e-06
9.13164e-08
1.04253e-06
7.44197e-08
9.8107e-07
6.1457e-08
9.29794e-07
5.12761e-08
8.8667e-07
4.3124e-08
8.5018e-07
3.64902e-08
8.19162e-07
3.10174e-08
7.92714e-07
2.64484e-08
7.7012e-07
2.2594e-08
7.50808e-07
1.93122e-08
7.34313e-07
1.64944e-08
7.20257e-07
1.40562e-08
7.08326e-07
1.19311e-08
6.9826e-07
1.00658e-08
6.89843e-07
8.41715e-09
6.82894e-07
6.94951e-09
6.7726e-07
5.6331e-09
6.72818e-07
4.44265e-09
6.69461e-07
3.35625e-09
6.67107e-07
2.35454e-09
6.65687e-07
1.41991e-09
6.65151e-07
5.35841e-10
6.65465e-07
-3.13703e-10
6.6661e-07
-1.14512e-09
6.68586e-07
-1.97616e-09
6.71413e-07
-2.82699e-09
6.75135e-07
-3.72217e-09
6.79829e-07
-4.69345e-09
6.85613e-07
-5.78442e-09
6.92673e-07
-7.05903e-09
7.01291e-07
-8.61798e-09
7.11923e-07
-1.06327e-08
7.25345e-07
-1.34215e-08
7.42974e-07
-1.76298e-08
7.67644e-07
-2.46698e-08
8.05428e-07
-3.77835e-08
8.70075e-07
-6.46474e-08
9.94616e-07
-1.24541e-07
1.26469e-06
-2.70077e-07
-6.37159e-07
1.90185e-06
1.01831e-05
2.46545e-06
9.21641e-06
3.21262e-06
7.94626e-06
2.66312e-06
6.79703e-06
2.01419e-06
5.8611e-06
1.4917e-06
5.12472e-06
1.10838e-06
4.54841e-06
8.37157e-07
4.09392e-06
6.45706e-07
3.73105e-06
5.08371e-07
3.43744e-06
4.07599e-07
3.19687e-06
3.31887e-07
2.99757e-06
2.73713e-07
2.83093e-06
2.281e-07
2.69051e-06
1.91693e-07
2.57146e-06
1.62176e-07
2.47003e-06
1.37918e-07
2.38331e-06
1.17742e-07
2.30897e-06
1.00783e-07
2.24518e-06
8.63938e-08
2.19041e-06
7.408e-08
2.14344e-06
6.34605e-08
2.10326e-06
5.42356e-08
2.06903e-06
4.6167e-08
2.04003e-06
3.90621e-08
2.01568e-06
3.27637e-08
1.99549e-06
2.71411e-08
1.97904e-06
2.20844e-08
1.96598e-06
1.74994e-08
1.95604e-06
1.33039e-08
1.94897e-06
9.42439e-09
1.94459e-06
5.79339e-09
1.94278e-06
2.34668e-09
1.94345e-06
-9.79446e-10
1.94655e-06
-4.25129e-09
1.95212e-06
-7.54186e-09
1.96023e-06
-1.09364e-08
1.97105e-06
-1.45405e-08
1.98485e-06
-1.84929e-08
2.00205e-06
-2.29861e-08
2.02329e-06
-2.83014e-08
2.04954e-06
-3.48712e-08
2.08231e-06
-4.33944e-08
2.12394e-06
-5.50565e-08
2.17827e-06
-7.19642e-08
2.25162e-06
-9.80149e-08
2.35443e-06
-1.40598e-07
2.50357e-06
-2.1378e-07
2.72342e-06
-3.44394e-07
3.03574e-06
-5.82396e-07
-9.95715e-07
3.3943e-06
1.05345e-05
1.93093e-06
1.04951e-05
3.25202e-06
9.90361e-06
3.25463e-06
9.0917e-06
2.82611e-06
8.26037e-06
2.32302e-06
7.49873e-06
1.87002e-06
6.83568e-06
1.5002e-06
6.27167e-06
1.20972e-06
5.79603e-06
9.84004e-07
5.39544e-06
8.08189e-07
5.05727e-06
6.70059e-07
4.77069e-06
5.60291e-07
4.52681e-06
4.71985e-07
4.31842e-06
4.00082e-07
4.13973e-06
3.40863e-07
3.98608e-06
2.91574e-07
3.85367e-06
2.50151e-07
3.73942e-06
2.15031e-07
3.6408e-06
1.85014e-07
3.55571e-06
1.59168e-07
3.48241e-06
1.36757e-07
3.41945e-06
1.17198e-07
3.3656e-06
1.0002e-07
3.31982e-06
8.48388e-08
3.28125e-06
7.13359e-08
3.24914e-06
5.92457e-08
3.22289e-06
4.83421e-08
3.20196e-06
3.84298e-08
3.18592e-06
2.93368e-08
3.17444e-06
2.09082e-08
3.16723e-06
1.30002e-08
3.16411e-06
5.47465e-09
3.16493e-06
-1.80661e-09
3.16967e-06
-8.9889e-09
3.17836e-06
-1.62333e-08
3.19115e-06
-2.37286e-08
3.20832e-06
-3.17088e-08
3.23031e-06
-4.04791e-08
3.25778e-06
-5.04568e-08
3.29172e-06
-6.22376e-08
3.33355e-06
-7.67047e-08
3.38537e-06
-9.52129e-08
3.45021e-06
-1.19903e-07
3.53249e-06
-1.54239e-07
3.63839e-06
-2.03918e-07
3.77609e-06
-2.783e-07
3.95472e-06
-3.92406e-07
4.17947e-06
-5.69144e-07
4.43647e-06
-8.39395e-07
-1.22575e-06
4.6665e-06
1.04653e-05
1.46561e-06
1.07771e-05
2.94026e-06
1.06758e-05
3.35591e-06
1.02725e-05
3.22938e-06
9.71463e-06
2.88093e-06
9.108e-06
2.47664e-06
8.51515e-06
2.09305e-06
7.96691e-06
1.75796e-06
7.47488e-06
1.47604e-06
7.0404e-06
1.24266e-06
6.66002e-06
1.05044e-06
6.32838e-06
8.91937e-07
6.03972e-06
7.60645e-07
5.78858e-06
6.5122e-07
5.57005e-06
5.59388e-07
5.37986e-06
4.81769e-07
5.2143e-06
4.15706e-07
5.07024e-06
3.59098e-07
4.94497e-06
3.1028e-07
4.83622e-06
2.67922e-07
4.74202e-06
2.30954e-07
4.66071e-06
1.98507e-07
4.59086e-06
1.69868e-07
4.53126e-06
1.44445e-07
4.48085e-06
1.21745e-07
4.43875e-06
1.01349e-07
4.40419e-06
8.28959e-08
4.37655e-06
6.60721e-08
4.35529e-06
5.0598e-08
4.33998e-06
3.62191e-08
4.33028e-06
2.26974e-08
4.32595e-06
9.8025e-09
4.32684e-06
-2.69761e-09
4.3329e-06
-1.50479e-08
4.34419e-06
-2.752e-08
4.36089e-06
-4.04313e-08
4.38335e-06
-5.41708e-08
4.41211e-06
-6.92385e-08
4.44796e-06
-8.63024e-08
4.49201e-06
-1.06287e-07
4.54581e-06
-1.30508e-07
4.61148e-06
-1.60881e-07
4.69182e-06
-2.00245e-07
4.79042e-06
-2.52834e-07
4.91145e-06
-3.24954e-07
5.05895e-06
-4.25795e-07
5.23461e-06
-5.68065e-07
5.43309e-06
-7.67632e-07
5.63365e-06
-1.03996e-06
-1.38697e-06
5.79488e-06
1.0342e-05
1.12359e-06
1.07373e-05
2.54503e-06
1.09003e-05
3.19284e-06
1.08068e-05
3.32291e-06
1.05226e-05
3.16516e-06
1.01251e-05
2.87415e-06
9.67674e-06
2.54137e-06
9.21984e-06
2.21487e-06
8.77955e-06
1.91632e-06
8.36917e-06
1.65305e-06
7.99443e-06
1.42518e-06
7.65666e-06
1.22971e-06
7.35472e-06
1.06258e-06
7.08629e-06
9.19645e-07
6.84856e-06
7.97119e-07
6.6386e-06
6.9173e-07
6.4536e-06
6.0071e-07
6.29094e-06
5.21753e-07
6.14827e-06
4.52949e-07
6.02348e-06
3.92716e-07
5.91469e-06
3.39743e-07
5.82026e-06
2.92938e-07
5.73874e-06
2.51384e-07
5.66888e-06
2.1431e-07
5.60957e-06
1.81056e-07
5.55986e-06
1.51057e-07
5.51894e-06
1.23818e-07
5.4861e-06
9.89039e-08
5.46078e-06
7.59221e-08
5.44249e-06
5.4512e-08
5.43085e-06
3.4333e-08
5.4256e-06
1.50532e-08
5.42657e-06
-3.66327e-09
5.43369e-06
-2.21711e-08
5.44703e-06
-4.08626e-08
5.46679e-06
-6.01916e-08
5.49333e-06
-8.0707e-08
5.52719e-06
-1.03099e-07
5.56916e-06
-1.28267e-07
5.62028e-06
-1.57413e-07
5.68195e-06
-1.92177e-07
5.7559e-06
-2.34832e-07
5.8442e-06
-2.88544e-07
5.94907e-06
-3.57702e-07
6.07241e-06
-4.48292e-07
6.21475e-06
-5.68141e-07
6.37338e-06
-7.26691e-07
6.53935e-06
-9.33603e-07
6.69437e-06
-1.19497e-06
-1.50518e-06
6.81258e-06
1.02416e-05
8.8195e-07
1.06171e-05
2.1696e-06
1.08951e-05
2.91479e-06
1.09957e-05
3.22237e-06
1.09248e-05
3.23599e-06
1.07228e-05
3.07613e-06
1.04357e-05
2.82855e-06
1.01024e-05
2.5481e-06
9.75202e-06
2.26673e-06
9.40387e-06
2.00119e-06
9.07002e-06
1.75902e-06
8.75729e-06
1.54245e-06
8.46896e-06
1.35091e-06
8.20613e-06
1.18248e-06
7.96849e-06
1.03475e-06
7.75499e-06
9.05227e-07
7.56416e-06
7.9154e-07
7.39435e-06
6.91563e-07
7.24388e-06
6.0342e-07
7.11112e-06
5.25482e-07
6.99452e-06
4.56343e-07
6.89266e-06
3.94794e-07
6.80426e-06
3.39791e-07
6.72813e-06
2.90433e-07
6.66325e-06
2.45935e-07
6.6087e-06
2.05611e-07
6.56367e-06
1.6885e-07
6.52747e-06
1.35107e-07
6.4995e-06
1.03883e-07
6.4793e-06
7.47148e-08
6.46647e-06
4.71618e-08
6.46074e-06
2.07905e-08
6.46191e-06
-4.83906e-09
6.46993e-06
-3.01909e-08
6.48484e-06
-5.5775e-08
6.50683e-06
-8.21752e-08
6.53621e-06
-1.10085e-07
6.57346e-06
-1.40359e-07
6.61927e-06
-1.74074e-07
6.67448e-06
-2.12626e-07
6.74015e-06
-2.5784e-07
6.81744e-06
-3.12125e-07
6.90755e-06
-3.7865e-07
7.01137e-06
-4.61521e-07
7.12897e-06
-5.65895e-07
7.2587e-06
-6.97874e-07
7.3959e-06
-8.6389e-07
7.53149e-06
-1.06919e-06
7.65146e-06
-1.31495e-06
-1.59379e-06
7.74007e-06
1.01727e-05
7.09201e-07
1.0498e-05
1.84434e-06
1.08084e-05
2.60442e-06
1.10139e-05
3.01689e-06
1.10882e-05
3.16166e-06
1.10418e-05
3.12254e-06
1.09008e-05
2.96957e-06
1.06942e-05
2.75471e-06
1.04476e-05
2.51325e-06
1.01814e-05
2.26741e-06
9.91023e-06
2.0302e-06
9.6442e-06
1.80848e-06
9.38985e-06
1.60526e-06
9.15107e-06
1.42126e-06
8.92994e-06
1.25589e-06
8.72728e-06
1.10788e-06
8.54311e-06
9.75708e-07
8.37693e-06
8.57741e-07
8.22794e-06
7.52413e-07
8.09517e-06
6.58256e-07
7.97757e-06
5.73936e-07
7.87412e-06
4.9825e-07
7.78378e-06
4.30124e-07
7.70562e-06
3.686e-07
7.63873e-06
3.12823e-07
7.58232e-06
2.62024e-07
7.53566e-06
2.15511e-07
7.49811e-06
1.7265e-07
7.46914e-06
1.32855e-07
7.44828e-06
9.55734e-08
7.43517e-06
6.02734e-08
7.42953e-06
2.64299e-08
7.43118e-06
-6.49224e-09
7.44005e-06
-3.90567e-08
7.45615e-06
-7.18783e-08
7.47963e-06
-1.05652e-07
7.51073e-06
-1.41189e-07
7.54984e-06
-1.79464e-07
7.59744e-06
-2.21672e-07
7.65412e-06
-2.69309e-07
7.72053e-06
-3.24252e-07
7.79727e-06
-3.88869e-07
7.88473e-06
-4.66107e-07
7.98276e-06
-5.59551e-07
8.09024e-06
-6.73372e-07
8.20441e-06
-8.12043e-07
8.32018e-06
-9.79659e-07
8.42965e-06
-1.17867e-06
8.52266e-06
-1.40795e-06
-1.66054e-06
8.58941e-06
1.01274e-05
5.81813e-07
1.04004e-05
1.57135e-06
1.07032e-05
2.30156e-06
1.09558e-05
2.76437e-06
1.1119e-05
2.99842e-06
1.11845e-05
3.05699e-06
1.11619e-05
2.99222e-06
1.10685e-05
2.84807e-06
1.09236e-05
2.65813e-06
1.07447e-05
2.44632e-06
1.05463e-05
2.22867e-06
1.03394e-05
2.01534e-06
1.01324e-05
1.8123e-06
9.93093e-06
1.6227e-06
9.73893e-06
1.44789e-06
9.55878e-06
1.28803e-06
9.39185e-06
1.14264e-06
9.23876e-06
1.01083e-06
9.09963e-06
8.91545e-07
8.97422e-06
7.83664e-07
8.86209e-06
6.86069e-07
8.76265e-06
5.97688e-07
8.67526e-06
5.17515e-07
8.59924e-06
4.44613e-07
8.53395e-06
3.78119e-07
8.47873e-06
3.17236e-07
8.43302e-06
2.61223e-07
8.39628e-06
2.09392e-07
8.36804e-06
1.61095e-07
8.34791e-06
1.1571e-07
8.33555e-06
7.26324e-08
8.33071e-06
3.12618e-08
8.33324e-06
-9.0168e-09
8.34303e-06
-4.88494e-08
8.36009e-06
-8.89358e-08
8.38449e-06
-1.30056e-07
8.41641e-06
-1.73105e-07
8.45608e-06
-2.19131e-07
8.50379e-06
-2.69387e-07
8.55987e-06
-3.25383e-07
8.62456e-06
-3.8895e-07
8.69799e-06
-4.62289e-07
8.77989e-06
-5.48009e-07
8.86943e-06
-6.49094e-07
8.96483e-06
-7.68769e-07
9.06295e-06
-9.10169e-07
9.15903e-06
-1.07573e-06
9.24663e-06
-1.26627e-06
9.31844e-06
-1.47976e-06
-1.71026e-06
9.36815e-06
1.00972e-05
4.84622e-07
1.03247e-05
1.34384e-06
1.06037e-05
2.02254e-06
1.08694e-05
2.49874e-06
1.10812e-05
2.78659e-06
1.12211e-05
2.91705e-06
1.12871e-05
2.92621e-06
1.12868e-05
2.8484e-06
1.12322e-05
2.71274e-06
1.11365e-05
2.54207e-06
1.10119e-05
2.35327e-06
1.0869e-05
2.15825e-06
1.07162e-05
1.96501e-06
1.05603e-05
1.77864e-06
1.0406e-05
1.60215e-06
1.0257e-05
1.43711e-06
1.01155e-05
1.28412e-06
9.98317e-06
1.14314e-06
9.86096e-06
1.01375e-06
9.74933e-06
8.95296e-07
9.64841e-06
7.86988e-07
9.55812e-06
6.87986e-07
9.4782e-06
5.97436e-07
9.40831e-06
5.145e-07
9.34806e-06
4.38367e-07
9.29704e-06
3.68258e-07
9.25483e-06
3.03432e-07
9.22104e-06
2.4318e-07
9.19532e-06
1.8682e-07
9.17734e-06
1.33687e-07
9.16684e-06
8.31278e-08
9.16362e-06
3.4485e-08
9.16752e-06
-1.29147e-08
9.17845e-06
-5.97783e-08
9.19638e-06
-1.06865e-07
9.22134e-06
-1.55014e-07
9.2534e-06
-2.05165e-07
9.29266e-06
-2.58399e-07
9.33925e-06
-3.15971e-07
9.39321e-06
-3.79346e-07
9.45449e-06
-4.50234e-07
9.52281e-06
-5.30608e-07
9.5975e-06
-6.22692e-07
9.67729e-06
-7.28892e-07
9.76014e-06
-8.5162e-07
9.84297e-06
-9.92995e-07
9.92159e-06
-1.15435e-06
9.99091e-06
-1.33559e-06
1.00456e-05
-1.53449e-06
-1.74617e-06
1.00816e-05
1.00765e-05
4.08152e-07
1.02668e-05
1.15353e-06
1.05172e-05
1.7721e-06
1.07777e-05
2.23829e-06
1.10114e-05
2.55282e-06
1.11969e-05
2.73156e-06
1.13253e-05
2.79784e-06
1.13968e-05
2.77689e-06
1.14173e-05
2.69229e-06
1.13951e-05
2.56418e-06
1.13397e-05
2.40868e-06
1.12598e-05
2.23814e-06
1.11633e-05
2.06159e-06
1.10565e-05
1.88538e-06
1.09449e-05
1.71382e-06
1.08324e-05
1.54962e-06
1.07221e-05
1.39441e-06
1.06162e-05
1.24896e-06
1.05165e-05
1.11352e-06
1.04238e-05
9.87957e-07
1.03389e-05
8.71876e-07
1.02622e-05
7.64738e-07
1.01937e-05
6.65906e-07
1.01335e-05
5.74697e-07
1.00815e-05
4.90404e-07
1.00374e-05
4.12317e-07
1.00011e-05
3.39732e-07
9.97233e-06
2.71954e-07
9.95085e-06
2.08297e-07
9.93646e-06
1.48082e-07
9.92896e-06
9.06298e-08
9.92819e-06
3.52505e-08
9.93404e-06
-1.8765e-08
9.94642e-06
-7.21605e-08
9.96529e-06
-1.25731e-07
9.99062e-06
-1.80341e-07
1.00224e-05
-2.36948e-07
1.00606e-05
-2.96627e-07
1.01052e-05
-3.60593e-07
1.01561e-05
-4.30221e-07
1.0213e-05
-5.07063e-07
1.02752e-05
-5.92838e-07
1.03419e-05
-6.89397e-07
1.04116e-05
-7.98629e-07
1.04823e-05
-9.223e-07
1.05511e-05
-1.06179e-06
1.06145e-05
-1.21773e-06
1.06684e-05
-1.38956e-06
1.07091e-05
-1.57515e-06
-1.77057e-06
1.07335e-05
1.00617e-05
3.46403e-07
1.02223e-05
9.93021e-07
1.04446e-05
1.54974e-06
1.06909e-05
1.99199e-06
1.09301e-05
2.31368e-06
1.11405e-05
2.52114e-06
1.131e-05
2.62831e-06
1.14341e-05
2.65275e-06
1.15139e-05
2.61256e-06
1.15536e-05
2.52448e-06
1.15593e-05
2.40292e-06
1.15378e-05
2.25967e-06
1.14954e-05
2.10396e-06
1.14381e-05
1.94277e-06
1.13707e-05
1.78121e-06
1.12974e-05
1.62286e-06
1.12217e-05
1.47013e-06
1.11461e-05
1.32455e-06
1.10727e-05
1.18698e-06
1.10028e-05
1.05779e-06
1.09377e-05
9.36999e-07
1.0878e-05
8.24408e-07
1.08243e-05
7.19633e-07
1.07768e-05
6.22184e-07
1.07357e-05
5.31499e-07
1.07011e-05
4.46971e-07
1.06728e-05
3.67967e-07
1.06509e-05
2.93838e-07
1.06353e-05
2.23923e-07
1.06259e-05
1.57554e-07
1.06224e-05
9.40485e-08
1.0625e-05
3.27103e-08
1.06334e-05
-2.71831e-08
1.06476e-05
-8.6389e-08
1.06676e-05
-1.45712e-07
1.06933e-05
-2.0602e-07
1.07246e-05
-2.68257e-07
1.07614e-05
-3.33461e-07
1.08036e-05
-4.02779e-07
1.08509e-05
-4.77473e-07
1.09027e-05
-5.58919e-07
1.09585e-05
-6.48584e-07
1.1017e-05
-7.47981e-07
1.1077e-05
-8.58569e-07
1.11363e-05
-9.81614e-07
1.11925e-05
-1.11798e-06
1.12426e-05
-1.26786e-06
1.12836e-05
-1.43051e-06
1.13124e-05
-1.604e-06
-1.78517e-06
1.1327e-05
1.00509e-05
2.95458e-07
1.01877e-05
8.56296e-07
1.03845e-05
1.35293e-06
1.0613e-05
1.76346e-06
1.08478e-05
2.07889e-06
1.10691e-05
2.29981e-06
1.12638e-05
2.43366e-06
1.14246e-05
2.49196e-06
1.15491e-05
2.48799e-06
1.16386e-05
2.43506e-06
1.16961e-05
2.34539e-06
1.17261e-05
2.22961e-06
1.17336e-05
2.09653e-06
1.17231e-05
1.95322e-06
1.16992e-05
1.80514e-06
1.16657e-05
1.6564e-06
1.16258e-05
1.51e-06
1.15823e-05
1.36801e-06
1.15375e-05
1.23182e-06
1.1493e-05
1.10225e-06
1.14503e-05
9.79743e-07
1.14103e-05
8.64398e-07
1.13738e-05
7.56104e-07
1.13414e-05
6.54583e-07
1.13135e-05
5.59441e-07
1.12903e-05
4.70199e-07
1.12719e-05
3.86319e-07
1.12585e-05
3.07222e-07
1.12502e-05
2.32296e-07
1.12468e-05
1.60906e-07
1.12485e-05
9.23919e-08
1.12551e-05
2.60693e-08
1.12667e-05
-3.87753e-08
1.12832e-05
-1.02891e-07
1.13046e-05
-1.6707e-07
1.13307e-05
-2.32159e-07
1.13615e-05
-2.99068e-07
1.13968e-05
-3.68777e-07
1.14364e-05
-4.42346e-07
1.14798e-05
-5.2091e-07
1.15266e-05
-6.05669e-07
1.15758e-05
-6.97858e-07
1.16266e-05
-7.98695e-07
1.16773e-05
-9.09296e-07
1.17262e-05
-1.03055e-06
1.17712e-05
-1.16297e-06
1.18099e-05
-1.3065e-06
1.18397e-05
-1.46032e-06
1.18584e-05
-1.62277e-06
-1.79128e-06
1.18645e-05
1.00428e-05
2.52666e-07
1.01605e-05
7.38636e-07
1.03349e-05
1.1785e-06
1.05449e-05
1.55348e-06
1.077e-05
1.85374e-06
1.09931e-05
2.0767e-06
1.12013e-05
2.22546e-06
1.13862e-05
2.30709e-06
1.15433e-05
2.33092e-06
1.16712e-05
2.3071e-06
1.1771e-05
2.24561e-06
1.1845e-05
2.1556e-06
1.18965e-05
2.04509e-06
1.19289e-05
1.92079e-06
1.19458e-05
1.78819e-06
1.19506e-05
1.65161e-06
1.19462e-05
1.51438e-06
1.19353e-05
1.37896e-06
1.192e-05
1.24713e-06
1.19021e-05
1.12008e-06
1.18833e-05
9.98588e-07
1.18646e-05
8.83051e-07
1.18471e-05
7.73612e-07
1.18315e-05
6.70202e-07
1.18184e-05
5.72599e-07
1.18081e-05
4.80464e-07
1.1801e-05
3.93369e-07
1.17974e-05
3.10821e-07
1.17975e-05
2.32275e-07
1.18012e-05
1.57148e-07
1.18088e-05
8.48184e-08
1.18202e-05
1.46337e-08
1.18356e-05
-5.40922e-08
1.18547e-05
-1.22081e-07
1.18778e-05
-1.90096e-07
1.19046e-05
-2.58943e-07
1.1935e-05
-3.29481e-07
1.19688e-05
-4.02617e-07
1.20058e-05
-4.79315e-07
1.20454e-05
-5.60578e-07
1.20872e-05
-6.47442e-07
1.21303e-05
-7.40932e-07
1.21736e-05
-8.42023e-07
1.22159e-05
-9.51557e-07
1.22555e-05
-1.07015e-06
1.22906e-05
-1.19808e-06
1.23192e-05
-1.33513e-06
1.23394e-05
-1.48053e-06
1.23495e-05
-1.63283e-06
-1.78994e-06
1.23482e-05
1.00365e-05
2.16166e-07
1.01388e-05
6.36355e-07
1.0294e-05
1.02333e-06
1.04861e-05
1.3613e-06
1.06991e-05
1.64073e-06
1.09184e-05
1.85743e-06
1.11321e-05
2.01176e-06
1.13315e-05
2.10765e-06
1.15111e-05
2.15134e-06
1.16679e-05
2.15031e-06
1.18011e-05
2.11242e-06
1.19114e-05
2.0453e-06
1.20006e-05
1.95594e-06
1.20709e-05
1.85047e-06
1.2125e-05
1.7341e-06
1.21655e-05
1.61112e-06
1.21949e-05
1.48496e-06
1.22155e-05
1.35832e-06
1.22295e-05
1.2332e-06
1.22384e-05
1.11109e-06
1.2244e-05
9.93007e-07
1.22475e-05
8.79604e-07
1.22498e-05
7.71239e-07
1.2252e-05
6.68036e-07
1.22547e-05
5.69937e-07
1.22584e-05
4.76741e-07
1.22636e-05
3.88133e-07
1.22707e-05
3.03717e-07
1.228e-05
2.23025e-07
1.22916e-05
1.45535e-07
1.23057e-05
7.06811e-08
1.23225e-05
-2.14422e-09
1.2342e-05
-7.35848e-08
1.23642e-05
-1.44321e-07
1.23892e-05
-2.15069e-07
1.24169e-05
-2.86585e-07
1.2447e-05
-3.5966e-07
1.24795e-05
-4.35124e-07
1.25141e-05
-5.13836e-07
1.25502e-05
-5.96677e-07
1.25873e-05
-6.84525e-07
1.26245e-05
-7.78229e-07
1.26611e-05
-8.78559e-07
1.26957e-05
-9.86147e-07
1.27269e-05
-1.10141e-06
1.27533e-05
-1.22447e-06
1.27732e-05
-1.35504e-06
1.27851e-05
-1.49238e-06
1.27875e-05
-1.63528e-06
-1.78202e-06
1.27796e-05
1.00316e-05
1.84606e-07
1.01214e-05
5.46559e-07
1.02601e-05
8.84568e-07
1.04359e-05
1.18551e-06
1.0636e-05
1.44067e-06
1.08482e-05
1.64521e-06
1.1062e-05
1.79792e-06
1.12691e-05
1.90054e-06
1.14634e-05
1.95703e-06
1.1641e-05
1.97271e-06
1.17998e-05
1.9536e-06
1.19393e-05
1.90585e-06
1.20599e-05
1.83537e-06
1.21628e-05
1.74757e-06
1.22497e-05
1.64719e-06
1.23225e-05
1.53832e-06
1.23831e-05
1.42432e-06
1.24335e-05
1.30792e-06
1.24754e-05
1.19127e-06
1.25105e-05
1.07602e-06
1.25402e-05
9.63344e-07
1.25657e-05
8.54094e-07
1.25881e-05
7.48798e-07
1.26084e-05
6.47741e-07
1.26274e-05
5.51007e-07
1.26456e-05
4.58522e-07
1.26636e-05
3.70082e-07
1.2682e-05
2.85384e-07
1.27009e-05
2.04041e-07
1.27209e-05
1.25602e-07
1.2742e-05
4.95616e-08
1.27645e-05
-2.46308e-08
1.27885e-05
-9.75666e-08
1.2814e-05
-1.69873e-07
1.28412e-05
-2.42212e-07
1.28698e-05
-3.15275e-07
1.29e-05
-3.89783e-07
1.29313e-05
-4.6648e-07
1.29636e-05
-5.46125e-07
1.29964e-05
-6.29479e-07
1.30292e-05
-7.17283e-07
1.30612e-05
-8.1023e-07
1.30915e-05
-9.08928e-07
1.31192e-05
-1.01384e-06
1.31431e-05
-1.12525e-06
1.31618e-05
-1.24316e-06
1.3174e-05
-1.36727e-06
1.31785e-05
-1.49691e-06
1.31743e-05
-1.63102e-06
-1.7682e-06
1.31605e-05
1.00276e-05
1.56974e-07
1.01072e-05
4.66951e-07
1.02321e-05
7.59694e-07
1.03932e-05
1.02439e-06
1.05806e-05
1.25334e-06
1.07841e-05
1.44168e-06
1.09947e-05
1.58732e-06
1.12046e-05
1.69062e-06
1.14078e-05
1.75388e-06
1.15997e-05
1.78075e-06
1.17777e-05
1.7757e-06
1.19399e-05
1.74357e-06
1.20861e-05
1.68924e-06
1.22163e-05
1.61732e-06
1.23315e-05
1.53202e-06
1.24328e-05
1.43704e-06
1.25215e-05
1.33558e-06
1.25991e-05
1.23028e-06
1.26671e-05
1.12329e-06
1.27268e-05
1.01632e-06
1.27795e-05
9.10655e-07
1.28263e-05
8.07248e-07
1.28684e-05
7.06753e-07
1.29066e-05
6.09575e-07
1.29417e-05
5.15913e-07
1.29744e-05
4.258e-07
1.30053e-05
3.3913e-07
1.3035e-05
2.55687e-07
1.30639e-05
1.75163e-07
1.30923e-05
9.71781e-08
1.31206e-05
2.12922e-08
1.31489e-05
-5.29845e-08
1.31776e-05
-1.26184e-07
1.32066e-05
-1.98874e-07
1.3236e-05
-2.71653e-07
1.32659e-05
-3.45145e-07
1.32961e-05
-4.19995e-07
1.33265e-05
-4.96861e-07
1.33567e-05
-5.76405e-07
1.33865e-05
-6.59276e-07
1.34154e-05
-7.46094e-07
1.34425e-05
-8.37422e-07
1.34673e-05
-9.33731e-07
1.34889e-05
-1.03537e-06
1.35061e-05
-1.14249e-06
1.3518e-05
-1.25506e-06
1.35235e-05
-1.37275e-06
1.35215e-05
-1.49496e-06
1.35113e-05
-1.62079e-06
-1.74907e-06
1.34922e-05
1.00245e-05
1.32491e-07
1.00958e-05
3.95681e-07
1.02089e-05
6.46517e-07
1.03572e-05
8.76152e-07
1.05326e-05
1.07795e-06
1.07269e-05
1.24736e-06
1.09323e-05
1.38191e-06
1.11418e-05
1.48112e-06
1.13495e-05
1.54614e-06
1.15509e-05
1.57936e-06
1.17426e-05
1.58403e-06
1.19223e-05
1.56387e-06
1.20887e-05
1.52279e-06
1.22414e-05
1.46464e-06
1.23804e-05
1.39303e-06
1.25062e-05
1.31124e-06
1.26196e-05
1.22218e-06
1.27216e-05
1.12831e-06
1.28132e-05
1.03169e-06
1.28955e-05
9.34007e-07
1.29696e-05
8.36563e-07
1.30365e-05
7.4036e-07
1.30971e-05
6.46119e-07
1.31523e-05
5.54324e-07
1.3203e-05
4.65257e-07
1.32498e-05
3.79029e-07
1.32933e-05
2.95617e-07
1.33341e-05
2.14877e-07
1.33727e-05
1.36574e-07
1.34095e-05
6.03962e-08
1.34448e-05
-1.40328e-08
1.3479e-05
-8.71403e-08
1.35122e-05
-1.59396e-07
1.35446e-05
-2.31304e-07
1.35763e-05
-3.03398e-07
1.36074e-05
-3.76231e-07
1.36378e-05
-4.5037e-07
1.36673e-05
-5.2639e-07
1.36958e-05
-6.0486e-07
1.37228e-05
-6.86327e-07
1.3748e-05
-7.71305e-07
1.37709e-05
-8.60244e-07
1.37906e-05
-9.53508e-07
1.38066e-05
-1.05134e-06
1.3818e-05
-1.15383e-06
1.38238e-05
-1.26089e-06
1.38232e-05
-1.3722e-06
1.38155e-05
-1.48723e-06
1.37999e-05
-1.60519e-06
-1.72512e-06
1.3776e-05
1.00219e-05
1.10546e-07
1.00864e-05
3.31235e-07
1.01898e-05
5.4313e-07
1.03269e-05
7.39053e-07
1.04914e-05
9.13408e-07
1.06767e-05
1.06211e-06
1.08759e-05
1.18264e-06
1.1083e-05
1.27407e-06
1.12924e-05
1.33678e-06
1.14995e-05
1.37227e-06
1.17007e-05
1.38281e-06
1.18933e-05
1.37122e-06
1.20756e-05
1.34055e-06
1.22463e-05
1.29393e-06
1.24049e-05
1.2344e-06
1.25514e-05
1.16478e-06
1.26859e-05
1.08762e-06
1.28091e-05
1.00513e-06
1.29216e-05
9.19215e-07
1.30241e-05
8.31453e-07
1.31176e-05
7.43107e-07
1.32028e-05
6.55167e-07
1.32805e-05
5.68368e-07
1.33516e-05
4.83228e-07
1.34168e-05
4.00076e-07
1.34768e-05
3.19078e-07
1.35321e-05
2.40267e-07
1.35834e-05
1.6356e-07
1.36312e-05
8.87826e-08
1.36759e-05
1.56815e-08
1.3718e-05
-5.60585e-08
1.37576e-05
-1.26804e-07
1.37952e-05
-1.96964e-07
1.38309e-05
-2.66978e-07
1.38648e-05
-3.37313e-07
1.3897e-05
-4.08452e-07
1.39275e-05
-4.80887e-07
1.39562e-05
-5.55112e-07
1.3983e-05
-6.31606e-07
1.40075e-05
-7.10829e-07
1.40294e-05
-7.93197e-07
1.40482e-05
-8.79067e-07
1.40634e-05
-9.68713e-07
1.40744e-05
-1.0623e-06
1.40804e-05
-1.15986e-06
1.40808e-05
-1.26128e-06
1.40748e-05
-1.36625e-06
1.40619e-05
-1.47429e-06
1.40414e-05
-1.58473e-06
-1.69675e-06
1.40131e-05
1.00199e-05
9.06416e-08
1.00788e-05
2.72352e-07
1.0174e-05
4.4787e-07
1.03017e-05
6.11435e-07
1.04566e-05
7.58428e-07
1.06334e-05
8.85315e-07
1.08263e-05
9.89749e-07
1.10298e-05
1.07058e-06
1.12388e-05
1.12776e-06
1.1449e-05
1.16213e-06
1.16565e-05
1.17526e-06
1.18585e-05
1.1692e-06
1.20528e-05
1.14632e-06
1.22376e-05
1.10908e-06
1.24121e-05
1.05996e-06
1.25755e-05
1.00132e-06
1.27278e-05
9.35327e-07
1.2869e-05
8.63911e-07
1.29995e-05
7.88753e-07
1.31197e-05
7.1127e-07
1.32302e-05
6.32625e-07
1.33316e-05
5.53741e-07
1.34246e-05
4.75327e-07
1.351e-05
3.97892e-07
1.35883e-05
3.21777e-07
1.36602e-05
2.47175e-07
1.37263e-05
1.74153e-07
1.37872e-05
1.0267e-07
1.38433e-05
3.25985e-08
1.38953e-05
-3.6264e-08
1.39434e-05
-1.04179e-07
1.39881e-05
-1.71458e-07
1.40296e-05
-2.3845e-07
1.40681e-05
-3.05535e-07
1.41039e-05
-3.73113e-07
1.41371e-05
-4.41599e-07
1.41676e-05
-5.11412e-07
1.41954e-05
-5.8297e-07
1.42205e-05
-6.56672e-07
1.42426e-05
-7.32894e-07
1.42613e-05
-8.11969e-07
1.42764e-05
-8.94173e-07
1.42874e-05
-9.79705e-07
1.42938e-05
-1.06867e-06
1.4295e-05
-1.16106e-06
1.42905e-05
-1.25673e-06
1.42796e-05
-1.35539e-06
1.42619e-05
-1.45661e-06
1.4237e-05
-1.55981e-06
-1.66428e-06
1.42045e-05
1.00183e-05
7.23694e-08
1.00727e-05
2.17966e-07
1.01613e-05
3.59271e-07
1.02809e-05
4.91746e-07
1.04277e-05
6.1167e-07
1.05969e-05
7.16101e-07
1.07837e-05
8.0297e-07
1.09832e-05
8.71122e-07
1.11907e-05
9.20251e-07
1.1402e-05
9.5079e-07
1.16135e-05
9.6377e-07
1.1822e-05
9.60662e-07
1.20251e-05
9.43228e-07
1.22208e-05
9.13383e-07
1.24077e-05
8.7308e-07
1.25848e-05
8.24221e-07
1.27516e-05
7.68585e-07
1.29077e-05
7.07789e-07
1.30532e-05
6.43254e-07
1.31882e-05
5.762e-07
1.33132e-05
5.0764e-07
1.34286e-05
4.38393e-07
1.35348e-05
3.69094e-07
1.36325e-05
3.00212e-07
1.37222e-05
2.32067e-07
1.38045e-05
1.6485e-07
1.388e-05
9.86403e-08
1.39493e-05
3.34228e-08
1.40128e-05
-3.08988e-08
1.4071e-05
-9.44868e-08
1.41244e-05
-1.57558e-07
1.41733e-05
-2.20374e-07
1.42181e-05
-2.83229e-07
1.4259e-05
-3.46445e-07
1.42962e-05
-4.10361e-07
1.433e-05
-4.75326e-07
1.43602e-05
-5.41691e-07
1.43871e-05
-6.09802e-07
1.44104e-05
-6.79984e-07
1.443e-05
-7.52538e-07
1.44458e-05
-8.27724e-07
1.44574e-05
-9.05747e-07
1.44644e-05
-9.86745e-07
1.44665e-05
-1.07077e-06
1.44632e-05
-1.15778e-06
1.44541e-05
-1.24762e-06
1.44387e-05
-1.34001e-06
1.44167e-05
-1.43456e-06
1.43876e-05
-1.53076e-06
-1.628e-06
1.43513e-05
1.0017e-05
5.53834e-08
1.00678e-05
1.67154e-07
1.0151e-05
2.76025e-07
1.02643e-05
3.78529e-07
1.04042e-05
4.7177e-07
1.05669e-05
5.53402e-07
1.07481e-05
6.21711e-07
1.09436e-05
6.75653e-07
1.1149e-05
7.14828e-07
1.13604e-05
7.39409e-07
1.15741e-05
7.50047e-07
1.1787e-05
7.4776e-07
1.19964e-05
7.33818e-07
1.22002e-05
7.09647e-07
1.23965e-05
6.76729e-07
1.25842e-05
6.36532e-07
1.27623e-05
5.90451e-07
1.29304e-05
5.39771e-07
1.3088e-05
4.85634e-07
1.32351e-05
4.29029e-07
1.3372e-05
3.70789e-07
1.34988e-05
3.11591e-07
1.36159e-05
2.51965e-07
1.37238e-05
1.92306e-07
1.3823e-05
1.32888e-07
1.3914e-05
7.38761e-08
1.39973e-05
1.53418e-08
1.40734e-05
-4.27236e-08
1.41429e-05
-1.00397e-07
1.42063e-05
-1.57813e-07
1.42638e-05
-2.15152e-07
1.43161e-05
-2.72631e-07
1.43634e-05
-3.30497e-07
1.44059e-05
-3.89019e-07
1.44441e-05
-4.48476e-07
1.44779e-05
-5.09159e-07
1.45076e-05
-5.71353e-07
1.45331e-05
-6.35336e-07
1.45545e-05
-7.01368e-07
1.45716e-05
-7.69682e-07
1.45844e-05
-8.40471e-07
1.45925e-05
-9.13881e-07
1.45958e-05
-9.89995e-07
1.45938e-05
-1.06882e-06
1.45863e-05
-1.1503e-06
1.4573e-05
-1.23425e-06
1.45534e-05
-1.32041e-06
1.45272e-05
-1.40843e-06
1.44943e-05
-1.49784e-06
-1.58812e-06
1.44544e-05
1.0016e-05
3.93836e-08
1.00641e-05
1.191e-07
1.01431e-05
1.9695e-07
1.02512e-05
2.70415e-07
1.03856e-05
3.37368e-07
1.0543e-05
3.96051e-07
1.07196e-05
4.45145e-07
1.09114e-05
4.83798e-07
1.11146e-05
5.11624e-07
1.13254e-05
5.28651e-07
1.15402e-05
5.35264e-07
1.17558e-05
5.32129e-07
1.19695e-05
5.20114e-07
1.21789e-05
5.00215e-07
1.23822e-05
4.7349e-07
1.25777e-05
4.41e-07
1.27644e-05
4.03763e-07
1.29414e-05
3.62727e-07
1.31083e-05
3.1874e-07
1.32648e-05
2.72543e-07
1.34108e-05
2.2476e-07
1.35465e-05
1.75902e-07
1.36721e-05
1.26368e-07
1.3788e-05
7.64544e-08
1.38945e-05
2.63657e-08
1.39922e-05
-2.37792e-08
1.40814e-05
-7.39338e-08
1.41628e-05
-1.24115e-07
1.42368e-05
-1.74394e-07
1.43039e-05
-2.24886e-07
1.43645e-05
-2.75744e-07
1.4419e-05
-3.27148e-07
1.44678e-05
-3.79304e-07
1.45112e-05
-4.32429e-07
1.45495e-05
-4.86753e-07
1.45828e-05
-5.42506e-07
1.46114e-05
-5.99917e-07
1.46353e-05
-6.59201e-07
1.46545e-05
-7.20556e-07
1.46689e-05
-7.84154e-07
1.46786e-05
-8.50131e-07
1.46833e-05
-9.18578e-07
1.46828e-05
-9.89532e-07
1.4677e-05
-1.06297e-06
1.46655e-05
-1.13879e-06
1.4648e-05
-1.21682e-06
1.46244e-05
-1.29681e-06
1.45944e-05
-1.37843e-06
1.45579e-05
-1.46126e-06
-1.54482e-06
1.45146e-05
1.00153e-05
2.41032e-08
1.00613e-05
7.30692e-08
1.01373e-05
1.20956e-07
1.02416e-05
1.6611e-07
1.03719e-05
2.07124e-07
1.05251e-05
2.42819e-07
1.06979e-05
2.72293e-07
1.08868e-05
2.9494e-07
1.1088e-05
3.10454e-07
1.12978e-05
3.18801e-07
1.15129e-05
3.2018e-07
1.17301e-05
3.14981e-07
1.19464e-05
3.03734e-07
1.21596e-05
2.87059e-07
1.23675e-05
2.65623e-07
1.25684e-05
2.40102e-07
1.2761e-05
2.11151e-07
1.29443e-05
1.79378e-07
1.31177e-05
1.45332e-07
1.32808e-05
1.0949e-07
1.34333e-05
7.22526e-08
1.35752e-05
3.39446e-08
1.37068e-05
-5.18396e-09
1.38282e-05
-4.49532e-08
1.39398e-05
-8.52473e-08
1.4042e-05
-1.26008e-07
1.41353e-05
-1.67229e-07
1.42202e-05
-2.08946e-07
1.4297e-05
-2.51235e-07
1.43663e-05
-2.94202e-07
1.44286e-05
-3.37976e-07
1.44841e-05
-3.82711e-07
1.45334e-05
-4.28572e-07
1.45767e-05
-4.75733e-07
1.46143e-05
-5.24376e-07
1.46465e-05
-5.74678e-07
1.46734e-05
-6.26812e-07
1.46951e-05
-6.80938e-07
1.47118e-05
-7.37197e-07
1.47233e-05
-7.95706e-07
1.47297e-05
-8.56547e-07
1.47309e-05
-9.19765e-07
1.47267e-05
-9.85357e-07
1.4717e-05
-1.05326e-06
1.47016e-05
-1.12337e-06
1.46803e-05
-1.19549e-06
1.46529e-05
-1.26939e-06
1.46192e-05
-1.34474e-06
1.45791e-05
-1.42117e-06
-1.49825e-06
1.45325e-05
1.00148e-05
9.29851e-09
1.00595e-05
2.83828e-08
1.01334e-05
4.70205e-08
1.02352e-05
6.43708e-08
1.03626e-05
7.97141e-08
1.0513e-05
9.24418e-08
1.06832e-05
1.02079e-07
1.08698e-05
1.08296e-07
1.10694e-05
1.1091e-07
1.12783e-05
1.09874e-07
1.14932e-05
1.05256e-07
1.1711e-05
9.72179e-08
1.19287e-05
8.59938e-08
1.21439e-05
7.18629e-08
1.23544e-05
5.51283e-08
1.25584e-05
3.60982e-08
1.27545e-05
1.50696e-08
1.29415e-05
-7.68295e-09
1.31188e-05
-3.19164e-08
1.32857e-05
-5.74245e-08
1.3442e-05
-8.404e-08
1.35876e-05
-1.11636e-07
1.37225e-05
-1.40125e-07
1.3847e-05
-1.69455e-07
1.39614e-05
-1.99611e-07
1.4066e-05
-2.30606e-07
1.41612e-05
-2.62483e-07
1.42476e-05
-2.95306e-07
1.43255e-05
-3.29161e-07
1.43955e-05
-3.64151e-07
1.44579e-05
-4.00392e-07
1.45132e-05
-4.38009e-07
1.45617e-05
-4.77135e-07
1.46039e-05
-5.17904e-07
1.464e-05
-5.60453e-07
1.46702e-05
-6.0491e-07
1.46948e-05
-6.51398e-07
1.47139e-05
-7.00024e-07
1.47276e-05
-7.50877e-07
1.47359e-05
-8.04025e-07
1.47389e-05
-8.59502e-07
1.47364e-05
-9.17311e-07
1.47285e-05
-9.7741e-07
1.47149e-05
-1.03972e-06
1.46956e-05
-1.10409e-06
1.46705e-05
-1.17035e-06
1.46393e-05
-1.23824e-06
1.46021e-05
-1.30748e-06
1.45586e-05
-1.3777e-06
-1.44854e-06
1.45089e-05
1.00146e-05
-5.25983e-09
1.00585e-05
-1.56037e-08