/*--------------------------------*- C++ -*----------------------------------*\
| =========                 |                                                 |
| \\      /  F ield         | OpenFOAM: The Open Source CFD Toolbox           |
|  \\    /   O peration     | Version:  2306                                  |
|   \\  /    A nd           | Website:  www.openfoam.com                      |
|    \\/     M anipulation  |                                                 |
\*---------------------------------------------------------------------------*/
FoamFile
{
    version     2.0;
    format      ascii;
    arch        "LSB;label=32;scalar=64";
    class       volScalarField;
    location    "2";
    object      p;
}
// * * * * * * * * * * * * * * * * * * * * * * * * * * * * * * * * * * * * * //

dimensions      [0 2 -2 0 0 0 0];

internalField   nonuniform List<scalar> 
1900
(
0.0596101
0.0353744
0.0149535
-0.000432564
-0.0115175
-0.0221627
-0.0327243
-0.0450471
-0.057811
-0.0721363
0.0303585
0.0221528
0.0108122
-0.000779399
-0.0118617
-0.0221264
-0.0326656
-0.043316
-0.0549956
-0.0662736
0.0212953
0.0167972
0.00926408
-0.000131954
-0.0102549
-0.0202866
-0.0301342
-0.0397752
-0.0493152
-0.0585405
0.0156258
0.0125471
0.00688623
-0.00077969
-0.00965547
-0.0189258
-0.0281516
-0.0371038
-0.0457424
-0.05395
0.0134395
0.0109023
0.00616078
-0.000490949
-0.00847422
-0.0170834
-0.025765
-0.0341953
-0.0422158
-0.0497366
0.0141118
0.0116336
0.007028
0.000570839
-0.00715646
-0.0154448
-0.0237329
-0.0317003
-0.0392185
-0.046255
0.0176039
0.0146638
0.00939481
0.00233048
-0.00570285
-0.0139527
-0.0219509
-0.0295169
-0.036639
-0.0433476
0.0243338
0.020047
0.0131675
0.00472724
-0.00405181
-0.0124205
-0.0201804
-0.0274218
-0.0342899
-0.0408424
0.0345014
0.0264133
0.0160005
0.00557656
-0.00367755
-0.0117186
-0.0189957
-0.0259271
-0.0326721
-0.0391855
0.0633632
0.0407042
0.0210248
0.00700443
-0.00259384
-0.01021
-0.0173362
-0.0244236
-0.031418
-0.038109
-0.096761
-0.096708
-0.0967304
-0.0967508
-0.0967404
-0.0966884
-0.0966165
-0.0965474
-0.0964965
-0.0964676
-0.0964559
-0.0964519
-0.0964489
-0.096444
-0.0964375
-0.0964309
-0.0964257
-0.0964235
-0.0964262
-0.0964369
-0.0964611
-0.0965071
-0.096589
-0.0967249
-0.096942
-0.0972796
-0.097785
-0.0985016
-0.0994581
-0.100648
-0.102007
-0.103413
-0.10474
-0.10592
-0.106929
-0.107749
-0.108304
-0.108429
-0.10788
-0.106347
-0.103541
-0.0992334
-0.0932838
-0.0856534
-0.0763699
-0.0655828
-0.0534607
-0.0402399
-0.0262262
-0.0117624
0.00276956
0.0170056
0.0305802
0.0431716
0.0544964
0.0643375
0.0725571
0.0790939
0.0839378
0.0871434
0.0888225
0.089128
0.0882375
0.0863401
0.0836255
0.0802742
0.0764521
0.0723039
0.0679559
0.0635077
0.0590421
0.0546205
0.0502795
0.0460671
0.0419868
0.0380483
0.0342606
0.0306217
0.0271379
0.0238124
0.0206568
0.0176738
0.0148779
0.0122669
0.00985622
0.00763414
0.00561838
0.00377606
0.00214619
0.000591839
-0.0968396
-0.0967802
-0.096786
-0.0967596
-0.0967031
-0.0966196
-0.0965394
-0.0964774
-0.0964393
-0.0964216
-0.0964145
-0.0964094
-0.0964023
-0.0963932
-0.096384
-0.0963766
-0.0963724
-0.0963725
-0.0963783
-0.0963924
-0.0964192
-0.0964652
-0.0965396
-0.0966575
-0.0968389
-0.0971093
-0.0974988
-0.0980494
-0.0987985
-0.0997669
-0.100942
-0.102272
-0.103686
-0.105127
-0.106546
-0.107867
-0.108941
-0.109525
-0.109311
-0.108009
-0.105352
-0.101124
-0.0951974
-0.0876614
-0.07851
-0.067779
-0.0556646
-0.0424173
-0.0283576
-0.0138241
0.000788249
0.0151132
0.0287852
0.0414684
0.0528906
0.0627873
0.0710576
0.0776331
0.0825151
0.0857643
0.0874919
0.0878496
0.0870156
0.0851794
0.0825305
0.0792504
0.0755036
0.0714348
0.0671698
0.062806
0.0584247
0.0540828
0.0498148
0.0456559
0.0416496
0.0378033
0.0340973
0.0305321
0.0271255
0.0238751
0.0207981
0.0178844
0.0151575
0.0125957
0.0102284
0.00801744
0.00601558
0.00412925
0.00246229
0.000715512
-0.0967565
-0.0967333
-0.0967694
-0.0967809
-0.0967183
-0.0966089
-0.0965071
-0.0964377
-0.0964025
-0.0963918
-0.0963909
-0.0963891
-0.0963831
-0.0963743
-0.0963654
-0.0963584
-0.0963541
-0.0963529
-0.0963552
-0.0963614
-0.0963733
-0.0963956
-0.0964362
-0.0965091
-0.0966355
-0.0968399
-0.0971579
-0.0976278
-0.0982855
-0.0991651
-0.100298
-0.101707
-0.103386
-0.105283
-0.107303
-0.109277
-0.110951
-0.112019
-0.112158
-0.111066
-0.108507
-0.104338
-0.0984739
-0.0908132
-0.0814978
-0.0706444
-0.0584505
-0.0451458
-0.0310369
-0.0164504
-0.00183706
0.0124611
0.0261003
0.0387451
0.0501194
0.0599848
0.0682228
0.0747643
0.0796171
0.0828438
0.0845635
0.084931
0.0841276
0.0823423
0.0797652
0.0765739
0.0729322
0.0689784
0.064837
0.0605984
0.056345
0.0521263
0.0479867
0.0439395
0.0400179
0.0362335
0.0326375
0.0292008
0.0259319
0.0228164
0.0198711
0.017084
0.0144844
0.012047
0.00980703
0.00771093
0.00581838
0.00400075
0.0023509
0.00063269
-0.0968964
-0.096916
-0.0969553
-0.0968991
-0.0967855
-0.0966393
-0.0965132
-0.0964326
-0.0963973
-0.0963912
-0.0963956
-0.0963992
-0.0963991
-0.0963967
-0.0963952
-0.0963964
-0.0964011
-0.0964081
-0.096415
-0.096419
-0.0964173
-0.0964076
-0.0963923
-0.0963817
-0.0963926
-0.0964536
-0.0966093
-0.096921
-0.0974602
-0.0982995
-0.0994985
-0.10109
-0.103074
-0.105387
-0.107875
-0.11031
-0.112375
-0.113725
-0.114049
-0.113068
-0.110571
-0.10642
-0.100554
-0.092952
-0.0837025
-0.0729314
-0.0608354
-0.0476642
-0.0337059
-0.0193333
-0.00492916
0.00911707
0.0224786
0.0348165
0.0458799
0.0554434
0.0633968
0.0696756
0.0743063
0.0773565
0.0789617
0.0792729
0.0784793
0.0767578
0.0743006
0.071268
0.0678234
0.0640879
0.0601814
0.0561834
0.05217
0.0481858
0.0442771
0.0404553
0.0367461
0.0331393
0.0296816
0.0264054
0.0233308
0.0204289
0.0176993
0.0151298
0.0127576
0.0105583
0.00856962
0.0067231
0.00507386
0.00349395
0.00205907
0.000592248
-0.0962468
-0.0964604
-0.0967115
-0.0968473
-0.0968193
-0.0967026
-0.0965862
-0.0965119
-0.0964813
-0.0964786
-0.0964864
-0.0964949
-0.0965013
-0.0965074
-0.0965153
-0.0965262
-0.0965394
-0.0965519
-0.0965584
-0.0965519
-0.0965249
-0.0964712
-0.0963885
-0.0962826
-0.0961736
-0.0960988
-0.0961151
-0.0962996
-0.0967449
-0.097545
-0.0987794
-0.100487
-0.102655
-0.105186
-0.107898
-0.110533
-0.112757
-0.114204
-0.114575
-0.113624
-0.111163
-0.107063
-0.101271
-0.0937872
-0.0846886
-0.0741227
-0.0622809
-0.0494343
-0.0358729
-0.0219693
-0.00808412
0.00538945
0.0181331
0.0298278
0.0402487
0.0491957
0.0565795
0.0623498
0.0665571
0.069278
0.0706643
0.0708624
0.0700633
0.0684293
0.0661458
0.0633531
0.0602022
0.0567954
0.0532384
0.0495959
0.0459343
0.0422859
0.0386945
0.0351726
0.0317456
0.0283998
0.0251917
0.0221118
0.0192479
0.0165852
0.0141217
0.0118356
0.00977272
0.00790528
0.00627859
0.00481983
0.00357337
0.00242431
0.00141834
0.00042023
-0.0971256
-0.0972644
-0.0972178
-0.0971453
-0.0970147
-0.0968727
-0.096767
-0.0967071
-0.0966813
-0.0966753
-0.0966772
-0.0966806
-0.0966841
-0.0966891
-0.0966973
-0.0967092
-0.0967232
-0.0967347
-0.0967358
-0.0967162
-0.0966648
-0.0965716
-0.0964318
-0.0962511
-0.0960523
-0.0958787
-0.0957973
-0.0958954
-0.0962751
-0.0970311
-0.0982532
-0.0999672
-0.102149
-0.104678
-0.107374
-0.109953
-0.112093
-0.113477
-0.113794
-0.112794
-0.110303
-0.106223
-0.100503
-0.0931598
-0.084272
-0.0740016
-0.0625564
-0.0502175
-0.0372907
-0.0241358
-0.0111057
0.00143994
0.0131971
0.0238892
0.0333188
0.0413314
0.0478635
0.0528976
0.0565045
0.0587782
0.0598757
0.0599421
0.0591564
0.0576672
0.0556372
0.053187
0.0504423
0.0474829
0.044392
0.0412148
0.0380009
0.034774
0.0315665
0.0283946
0.0252793
0.0222715
0.0193722
0.016554
0.0139094
0.0114748
0.00928552
0.00731963
0.00561776
0.00415157
0.00297013
0.00201644
0.00131716
0.000776844
0.000404091
9.63607e-05
-0.0949057
-0.0958824
-0.0963671
-0.0967687
-0.0969776
-0.0970359
-0.0970213
-0.0969871
-0.0969575
-0.0969335
-0.0969122
-0.0968921
-0.0968743
-0.0968613
-0.0968554
-0.0968569
-0.0968639
-0.0968704
-0.096867
-0.0968409
-0.0967786
-0.0966665
-0.0964973
-0.0962782
-0.096038
-0.095821
-0.0956975
-0.0957575
-0.0961009
-0.0968228
-0.0979904
-0.0996256
-0.101691
-0.104058
-0.106519
-0.108837
-0.110702
-0.111804
-0.111858
-0.110638
-0.107983
-0.103806
-0.098072
-0.0908197
-0.082152
-0.072244
-0.0613295
-0.0496906
-0.037646
-0.025531
-0.0136857
-0.0024169
0.00800505
0.0173677
0.0255119
0.0323436
0.037831
0.0419984
0.0449298
0.046734
0.0475591
0.0475435
0.0468434
0.0455867
0.0439068
0.0418977
0.0396583
0.0372413
0.0347047
0.0320703
0.0293652
0.0266085
0.0238212
0.0210217
0.0182433
0.0155245
0.0128928
0.0103406
0.00791438
0.00567388
0.00371635
0.00204746
0.000695542
-0.000356744
-0.00106141
-0.00144771
-0.00150959
-0.00132202
-0.000908305
-0.000345553
-0.0997139
-0.0988854
-0.0984532
-0.0980496
-0.0977332
-0.0975185
-0.0973826
-0.0972856
-0.0972056
-0.0971354
-0.0970717
-0.0970142
-0.0969649
-0.0969266
-0.0969015
-0.0968887
-0.0968861
-0.0968865
-0.0968796
-0.0968524
-0.0967909
-0.0966837
-0.0965235
-0.0963113
-0.0960722
-0.0958589
-0.0957392
-0.0957939
-0.0961098
-0.096764
-0.0978098
-0.0992542
-0.101041
-0.103047
-0.105077
-0.106895
-0.108226
-0.10879
-0.108338
-0.106674
-0.103663
-0.0992429
-0.0934155
-0.0862464
-0.0778688
-0.0684695
-0.058291
-0.0476062
-0.0367247
-0.0259448
-0.0155685
-0.00584724
0.00300065
0.0108347
0.0175476
0.0231053
0.02751
0.0308197
0.0331201
0.0345195
0.035146
0.0351215
0.0345788
0.03362
0.032347
0.0308247
0.029126
0.0272796
0.0253213
0.0232435
0.0210568
0.0187668
0.0163887
0.0139364
0.0114508
0.00894037
0.00647689
0.00410912
0.00184862
-0.000231317
-0.00200364
-0.00343511
-0.00449695
-0.00517437
-0.00541856
-0.00523249
-0.00462691
-0.00365959
-0.00237849
-0.000853012
-0.0938155
-0.0953193
-0.0964001
-0.0971281
-0.0974006
-0.0974367
-0.097361
-0.0972476
-0.0971406
-0.0970505
-0.0969727
-0.0969044
-0.0968468
-0.0968021
-0.0967718
-0.0967548
-0.0967455
-0.0967379
-0.0967206
-0.0966799
-0.0966021
-0.0964759
-0.0962969
-0.0960711
-0.0958228
-0.0955957
-0.0954492
-0.0954506
-0.0956673
-0.0961547
-0.0969424
-0.0980208
-0.0993241
-0.100731
-0.102064
-0.103115
-0.103654
-0.103455
-0.102317
-0.100088
-0.0966698
-0.0920196
-0.0861664
-0.0792063
-0.0712972
-0.0626379
-0.0534675
-0.0440376
-0.0346161
-0.0254442
-0.0167551
-0.00872933
-0.00152766
0.0047614
0.0100767
0.0144284
0.0178407
0.0203895
0.0221489
0.0232172
0.0236943
0.0236894
0.0233145
0.0226543
0.0217819
0.0207344
0.0195575
0.0182564
0.016848
0.0152945
0.0136023
0.01175
0.00974618
0.00760337
0.00534754
0.00300904
0.000664465
-0.00162788
-0.00385336
-0.00584913
-0.00750097
-0.0087747
-0.00962759
-0.00999905
-0.00983272
-0.0091104
-0.00784835
-0.00609141
-0.00390212
-0.00136557
-0.117079
-0.102769
-0.100793
-0.0992318
-0.0981694
-0.0975711
-0.0972434
-0.0970393
-0.0968742
-0.0967443
-0.0966527
-0.0965886
-0.0965398
-0.0965005
-0.0964686
-0.0964415
-0.096413
-0.0963743
-0.0963134
-0.0962169
-0.0960723
-0.0958701
-0.095608
-0.095293
-0.0949447
-0.0945971
-0.0942965
-0.0940952
-0.0940414
-0.0941704
-0.0944944
-0.0949935
-0.0956043
-0.09622
-0.0966911
-0.0968352
-0.0964668
-0.0954165
-0.093545
-0.0907541
-0.0869941
-0.0822653
-0.0766242
-0.0701763
-0.0630706
-0.0554862
-0.0476273
-0.0397027
-0.0319218
-0.0244666
-0.0175016
-0.0111487
-0.00551544
-0.000651378
0.00340871
0.00669118
0.00922498
0.0110934
0.0123581
0.013115
0.0134371
0.0134324
0.013191
0.0127918
0.0122847
0.0116893
0.0110201
0.0102472
0.00935927
0.00830077
0.00707877
0.00564109
0.00398744
0.00211438
4.57769e-05
-0.00217415
-0.004431
-0.00669921
-0.00894726
-0.0109458
-0.0125817
-0.013801
-0.0145375
-0.01469
-0.0141927
-0.0130021
-0.0111281
-0.00859914
-0.00548269
-0.00188731
-0.0839695
-0.09095
-0.093819
-0.0947334
-0.0950626
-0.0952732
-0.0954436
-0.0955697
-0.0956746
-0.0957565
-0.0958085
-0.0958304
-0.0958274
-0.095805
-0.095766
-0.0957086
-0.0956263
-0.0955097
-0.0953473
-0.0951272
-0.0948394
-0.0944771
-0.0940398
-0.0935347
-0.0929781
-0.0923953
-0.0918173
-0.091278
-0.0908081
-0.0904276
-0.0901379
-0.0899151
-0.089705
-0.0894223
-0.0889556
-0.0881777
-0.0869628
-0.0852015
-0.0828085
-0.0797318
-0.0759542
-0.0714968
-0.0664171
-0.0608015
-0.0547611
-0.0484328
-0.0419731
-0.0355457
-0.0293165
-0.0234352
-0.0180262
-0.013166
-0.00891108
-0.00528812
-0.00232152
1.41498e-05
0.00175211
0.00297712
0.00374851
0.00416886
0.00430693
0.00427847
0.00414229
0.00397358
0.00379931
0.00365222
0.00351063
0.00329523
0.00293708
0.00237915
0.00162152
0.000595867
-0.000706182
-0.00233161
-0.00422597
-0.00636392
-0.00861933
-0.0109419
-0.0131453
-0.0151921
-0.016928
-0.018219
-0.0189638
-0.0190245
-0.018327
-0.0167811
-0.0143912
-0.0111508
-0.0071391
-0.00246971
-0.0777711
-0.085775
-0.089946
-0.0914518
-0.0918412
-0.0920444
-0.0923615
-0.0927751
-0.0931779
-0.0935073
-0.0937471
-0.0939071
-0.0940034
-0.0940486
-0.0940473
-0.0939967
-0.0938885
-0.0937118
-0.0934547
-0.0931068
-0.0926598
-0.0921093
-0.0914562
-0.0907073
-0.089876
-0.0889814
-0.0880464
-0.0870953
-0.0861495
-0.0852223
-0.084314
-0.0834077
-0.0824671
-0.081436
-0.0802426
-0.0788043
-0.0770409
-0.0748829
-0.072276
-0.0691893
-0.0656157
-0.061578
-0.0571255
-0.052334
-0.0473002
-0.0421256
-0.0369194
-0.0318002
-0.026898
-0.022338
-0.0182189
-0.0145996
-0.0115173
-0.00898671
-0.00700389
-0.00553206
-0.00452881
-0.00392273
-0.00364786
-0.00357982
-0.0036078
-0.00360979
-0.00357501
-0.00346678
-0.00327264
-0.00291978
-0.00247356
-0.00205537
-0.00182445
-0.00183814
-0.00213605
-0.00276581
-0.00374704
-0.00512965
-0.00684864
-0.00889406
-0.0111333
-0.0134961
-0.0158108
-0.017986
-0.0198791
-0.0213466
-0.022249
-0.0224099
-0.0217269
-0.0200306
-0.0173274
-0.0135329
-0.00875358
-0.00307474
-0.067151
-0.0744905
-0.0799158
-0.0834027
-0.0854604
-0.0867613
-0.0877737
-0.0886942
-0.089549
-0.090303
-0.0909251
-0.0914068
-0.0917571
-0.0919898
-0.092115
-0.0921357
-0.0920482
-0.0918449
-0.0915168
-0.0910563
-0.0904577
-0.0897194
-0.0888439
-0.0878389
-0.0867167
-0.0854938
-0.0841892
-0.0828228
-0.0814119
-0.0799686
-0.0784961
-0.0769867
-0.0754208
-0.0737669
-0.0719869
-0.0700378
-0.0678765
-0.0654611
-0.0627573
-0.0597422
-0.0564084
-0.0527715
-0.0488687
-0.0447621
-0.0405331
-0.0362742
-0.0320863
-0.0280696
-0.024313
-0.0208854
-0.0178519
-0.0152757
-0.0132177
-0.0116834
-0.0105985
-0.00987308
-0.00945232
-0.00931241
-0.00939756
-0.00954374
-0.00956348
-0.00935487
-0.00898277
-0.00849025
-0.007876
-0.00708234
-0.00619253
-0.00529825
-0.00456405
-0.00407462
-0.00396316
-0.00425299
-0.00500145
-0.00618663
-0.00777971
-0.00972945
-0.0119335
-0.0143346
-0.0167519
-0.0190882
-0.0211463
-0.0228543
-0.0239777
-0.0243716
-0.0238745
-0.02226
-0.0195019
-0.0153953
-0.0100833
-0.0035815
-0.0615179
-0.0681826
-0.0736565
-0.0778188
-0.0807881
-0.0828787
-0.0844427
-0.0857317
-0.086865
-0.0878687
-0.0887286
-0.0894271
-0.0899579
-0.090325
-0.0905354
-0.0905935
-0.0904984
-0.0902454
-0.0898271
-0.0892375
-0.088472
-0.0875303
-0.0864155
-0.0851361
-0.0837041
-0.0821353
-0.0804473
-0.0786583
-0.0767853
-0.0748422
-0.0728381
-0.0707761
-0.0686531
-0.0664594
-0.0641824
-0.0618046
-0.0593101
-0.0566802
-0.0539019
-0.0509636
-0.0478614
-0.0445968
-0.041184
-0.0376603
-0.0340918
-0.0305852
-0.0272718
-0.0242594
-0.0215893
-0.0192286
-0.0171467
-0.0154159
-0.0141838
-0.013478
-0.0131237
-0.0128981
-0.0127407
-0.0127349
-0.0128708
-0.012979
-0.0128556
-0.012409
-0.0116978
-0.0107902
-0.00973106
-0.00857323
-0.0074366
-0.00641181
-0.00559062
-0.00502098
-0.00480095
-0.00494888
-0.00553678
-0.00652259
-0.00793288
-0.00967318
-0.0117333
-0.0139947
-0.0163575
-0.0186984
-0.0208649
-0.0227207
-0.0241446
-0.0249324
-0.0247294
-0.0233952
-0.0207911
-0.0166128
-0.0110168
-0.00393701
-0.0566716
-0.0629064
-0.0683022
-0.0727492
-0.0762459
-0.0789247
-0.0810024
-0.0826889
-0.0841264
-0.0853812
-0.0864668
-0.0873729
-0.0880873
-0.088604
-0.0889224
-0.0890432
-0.0889654
-0.088685
-0.0881962
-0.0874937
-0.0865739
-0.085437
-0.0840872
-0.0825335
-0.0807891
-0.0788703
-0.0767958
-0.0745853
-0.0722586
-0.0698341
-0.0673288
-0.0647571
-0.062131
-0.0594594
-0.05675
-0.0540061
-0.0512339
-0.0484358
-0.0456214
-0.0427939
-0.0399586
-0.0371074
-0.0342317
-0.0313223
-0.0283976
-0.0255693
-0.0230298
-0.0209386
-0.0193043
-0.0179236
-0.0166235
-0.0154542
-0.0146821
-0.0144317
-0.0144666
-0.0144444
-0.0143023
-0.0141673
-0.0140403
-0.0138274
-0.0134615
-0.012948
-0.0122954
-0.0114479
-0.0103989
-0.00922274
-0.00804743
-0.00698325
-0.00614151
-0.00556935
-0.00533015
-0.00544047
-0.00592979
-0.00677666
-0.00799517
-0.00952456
-0.0113657
-0.0134027
-0.0156162
-0.0178371
-0.0200197
-0.0219636
-0.0235565
-0.0245112
-0.0247246
-0.023771
-0.0214328
-0.0173645
-0.0116633
-0.00422932
-0.0527871
-0.0587555
-0.0640675
-0.0686377
-0.0724369
-0.0755168
-0.0780019
-0.0800443
-0.081773
-0.0832675
-0.0845597
-0.0856512
-0.0865308
-0.0871869
-0.087611
-0.0877975
-0.0877418
-0.0874382
-0.0868812
-0.0860654
-0.0849887
-0.0836524
-0.0820627
-0.0802296
-0.0781681
-0.075896
-0.0734349
-0.0708073
-0.0680381
-0.0651518
-0.0621746
-0.0591329
-0.0560541
-0.0529671
-0.0499
-0.0468792
-0.0439273
-0.041062
-0.0383071
-0.0356825
-0.033205
-0.0308631
-0.0286199
-0.0264068
-0.0241704
-0.021991
-0.0200596
-0.0186151
-0.0176928
-0.0170144
-0.0163063
-0.0155749
-0.0149498
-0.0145772
-0.014436
-0.014411
-0.0144999
-0.0146271
-0.0145661
-0.0141982
-0.013582
-0.012837
-0.0120133
-0.0111133
-0.0101492
-0.00915918
-0.00821633
-0.00738926
-0.00671544
-0.00625678
-0.00605734
-0.00614141
-0.00653652
-0.00724072
-0.00825866
-0.00956211
-0.0111444
-0.0129419
-0.0149302
-0.0169857
-0.0190802
-0.0210158
-0.0227471
-0.023935
-0.0244568
-0.0238022
-0.0216849
-0.0177868
-0.0120947
-0.00449581
-0.0496365
-0.0554461
-0.0606906
-0.0653008
-0.0692542
-0.0725819
-0.0753613
-0.0776957
-0.0796853
-0.0814041
-0.0828915
-0.0841575
-0.0851946
-0.0859878
-0.0865221
-0.0867845
-0.0867641
-0.086451
-0.0858372
-0.0849174
-0.0836906
-0.0821605
-0.0803364
-0.0782321
-0.0758663
-0.0732609
-0.070442
-0.0674368
-0.0642762
-0.0609913
-0.0576179
-0.0541935
-0.0507627
-0.0473749
-0.0440852
-0.0409494
-0.0380087
-0.0352786
-0.0327634
-0.0304764
-0.0284203
-0.026582
-0.0248846
-0.0232388
-0.0216616
-0.0202075
-0.0188925
-0.0177561
-0.0168351
-0.0161137
-0.0156956
-0.015692
-0.0158822
-0.0158081
-0.015352
-0.0147797
-0.0143772
-0.014144
-0.0139295
-0.0136075
-0.013134
-0.0125327
-0.0118474
-0.0110863
-0.0102638
-0.00941469
-0.00858751
-0.0078613
-0.00728588
-0.00690203
-0.00674388
-0.00683037
-0.00717691
-0.00778517
-0.00865605
-0.0097784
-0.011141
-0.0127114
-0.0144541
-0.0162981
-0.0181943
-0.0200186
-0.0216999
-0.0229482
-0.0236462
-0.0231962
-0.0215042
-0.0175348
-0.0119892
-0.00449225
-0.0470351
-0.0527724
-0.0579666
-0.0625717
-0.0665896
-0.0700593
-0.0730417
-0.0756088
-0.0778303
-0.0797634
-0.081444
-0.0828858
-0.0840841
-0.0850234
-0.0856834
-0.0860435
-0.0860847
-0.0857909
-0.0851499
-0.0841551
-0.0828072
-0.0811142
-0.0790913
-0.0767597
-0.0741457
-0.0712789
-0.0681918
-0.0649184
-0.0614947
-0.057958
-0.0543496
-0.0507144
-0.047107
-0.04359
-0.0402404
-0.0371399
-0.0343703
-0.0319787
-0.0299077
-0.0281067
-0.0265006
-0.0249563
-0.0233688
-0.0217777
-0.0204498
-0.0196492
-0.0194119
-0.0192553
-0.0186647
-0.0175987
-0.0164773
-0.0157306
-0.015361
-0.0151124
-0.0148593
-0.0145964
-0.0143592
-0.0141525
-0.0138853
-0.0135014
-0.0129941
-0.0123865
-0.0117003
-0.0109712
-0.0102222
-0.00948444
-0.00879571
-0.0081975
-0.00773162
-0.00743203
-0.00732785
-0.00743702
-0.00777118
-0.00833143
-0.00911543
-0.0101141
-0.0113137
-0.0126893
-0.014204
-0.0158069
-0.0174354
-0.0190091
-0.0204299
-0.0215071
-0.022017
-0.0214957
-0.0196254
-0.0159634
-0.0105469
-0.00352967
-0.0453348
-0.0510013
-0.0561226
-0.0606881
-0.06472
-0.0682618
-0.071371
-0.0741052
-0.0765119
-0.0786317
-0.0804918
-0.0821025
-0.0834586
-0.084543
-0.085332
-0.0857991
-0.0859189
-0.0856692
-0.0850333
-0.0840025
-0.0825773
-0.0807694
-0.0786003
-0.0761009
-0.0733076
-0.0702614
-0.0670038
-0.063577
-0.0600216
-0.056379
-0.0526901
-0.0490008
-0.0453637
-0.0418455
-0.0385334
-0.035532
-0.0329638
-0.0309075
-0.0293977
-0.0283312
-0.0274377
-0.0264132
-0.0250709
-0.0234151
-0.0216456
-0.0201695
-0.0191603
-0.018417
-0.0177068
-0.0169726
-0.0163647
-0.0159512
-0.0156955
-0.0154294
-0.0150998
-0.0147343
-0.0143871
-0.0140659
-0.0137166
-0.0132985
-0.0128032
-0.0122369
-0.0116037
-0.0109293
-0.0102387
-0.00956383
-0.00894284
-0.00841536
-0.00801658
-0.00777596
-0.00771753
-0.00785396
-0.00819919
-0.00874954
-0.00949953
-0.010438
-0.0115471
-0.0127986
-0.0141514
-0.0155478
-0.0169144
-0.0181614
-0.0191777
-0.0198102
-0.0198334
-0.0189039
-0.0167348
-0.0130281
-0.00786254
-0.00198257
-0.0443262
-0.04999
-0.0550889
-0.0596481
-0.0637079
-0.0673151
-0.0705198
-0.073373
-0.0759216
-0.0781976
-0.0802165
-0.0819802
-0.0834792
-0.0846952
-0.0856037
-0.0861775
-0.0863898
-0.0862176
-0.0856448
-0.0846644
-0.0832803
-0.081507
-0.0793692
-0.0768999
-0.0741377
-0.0711247
-0.0679043
-0.0645195
-0.0610124
-0.057424
-0.0537952
-0.0501689
-0.0465933
-0.043126
-0.0398367
-0.0368088
-0.0341274
-0.0318546
-0.0300023
-0.0285114
-0.0272237
-0.0259051
-0.0244416
-0.0228544
-0.0214235
-0.0202996
-0.0195176
-0.0188626
-0.0181531
-0.0173699
-0.0166457
-0.0160976
-0.0157055
-0.0153643
-0.0150315
-0.0147033
-0.0143836
-0.0140557
-0.013687
-0.013255
-0.0127372
-0.0121566
-0.0115267
-0.0108672
-0.0102025
-0.00956269
-0.00898178
-0.00849514
-0.0081359
-0.00793275
-0.00790948
-0.00808682
-0.00846713
-0.00905856
-0.00985818
-0.0108541
-0.0120231
-0.0133255
-0.0147029
-0.0160757
-0.0173445
-0.0183943
-0.0191003
-0.0193223
-0.0188796
-0.0175264
-0.0150079
-0.0112278
-0.00631157
-0.000888134
)
;

boundaryField
{
    fixedWalls
    {
        type            zeroGradient;
    }
    inflowWall
    {
        type            zeroGradient;
    }
    outflowWall
    {
        type            fixedValue;
        value           uniform 0;
    }
    frontAndBack
    {
        type            empty;
    }
}


// ************************************************************************* //
