/*--------------------------------*- C++ -*----------------------------------*\
| =========                 |                                                 |
| \\      /  F ield         | OpenFOAM: The Open Source CFD Toolbox           |
|  \\    /   O peration     | Version:  2306                                  |
|   \\  /    A nd           | Website:  www.openfoam.com                      |
|    \\/     M anipulation  |                                                 |
\*---------------------------------------------------------------------------*/
FoamFile
{
    version     2.0;
    format      ascii;
    arch        "LSB;label=32;scalar=64";
    class       surfaceScalarField;
    location    "2";
    object      phi;
}
// * * * * * * * * * * * * * * * * * * * * * * * * * * * * * * * * * * * * * //

dimensions      [0 3 -1 0 0 0 0];

oriented        oriented;

internalField   nonuniform List<scalar> 
3680
(
4.93477e-05
6.52326e-07
4.79753e-05
1.37233e-06
4.67014e-05
1.27396e-06
4.52666e-05
1.43475e-06
4.41336e-05
1.13302e-06
4.27352e-05
1.39842e-06
4.17608e-05
9.74406e-07
4.04697e-05
1.29107e-06
3.98537e-05
6.1606e-07
9.66029e-07
3.88876e-05
5.03391e-05
3.13183e-07
5.0869e-05
8.4243e-07
5.11343e-05
1.00872e-06
5.14702e-05
1.09882e-06
5.16003e-05
1.00296e-06
5.19888e-05
1.00987e-06
5.20794e-05
8.83866e-07
5.25416e-05
8.28866e-07
5.25481e-05
6.09541e-07
3.92932e-07
5.31212e-05
5.01634e-05
1.49808e-07
5.05561e-05
4.49657e-07
5.09777e-05
5.87206e-07
5.14228e-05
6.53717e-07
5.18218e-05
6.03891e-07
5.22754e-05
5.56291e-07
5.27063e-05
4.53018e-07
5.31805e-05
3.54598e-07
5.36063e-05
1.83778e-07
-3.22705e-08
5.40315e-05
5.00933e-05
5.64742e-08
5.03768e-05
1.66176e-07
5.07352e-05
2.28803e-07
5.11483e-05
2.40601e-07
5.15532e-05
1.99028e-07
5.19772e-05
1.32328e-07
5.2389e-05
4.11849e-08
5.28208e-05
-7.72333e-08
5.32318e-05
-2.27212e-07
-4.08482e-07
5.3608e-05
5.00739e-05
-1.73896e-08
5.02914e-05
-5.13988e-08
5.06113e-05
-9.11001e-08
5.09891e-05
-1.37151e-07
5.13809e-05
-1.92747e-07
5.17753e-05
-2.62073e-07
5.21675e-05
-3.51011e-07
5.25526e-05
-4.62338e-07
5.29219e-05
-5.96563e-07
-7.53814e-07
5.32673e-05
5.00731e-05
-9.04885e-08
5.02827e-05
-2.60988e-07
5.05972e-05
-4.05596e-07
5.09642e-05
-5.04165e-07
5.13428e-05
-5.71336e-07
5.17192e-05
-6.38497e-07
5.20878e-05
-7.19622e-07
5.24468e-05
-8.21293e-07
5.27936e-05
-9.43357e-07
-1.08175e-06
5.31215e-05
5.00941e-05
-1.84547e-07
5.0355e-05
-5.21926e-07
5.0697e-05
-7.47559e-07
5.10658e-05
-8.73028e-07
5.14367e-05
-9.42213e-07
5.17985e-05
-1.00029e-06
5.21525e-05
-1.07365e-06
5.25002e-05
-1.16899e-06
5.28363e-05
-1.27939e-06
-1.39693e-06
5.31514e-05
5.01663e-05
-3.50836e-07
5.05172e-05
-8.72834e-07
5.09189e-05
-1.14923e-06
5.1296e-05
-1.25018e-06
5.16426e-05
-1.28876e-06
5.19768e-05
-1.33456e-06
5.23065e-05
-1.40336e-06
5.26225e-05
-1.48495e-06
5.29106e-05
-1.56749e-06
-1.64567e-06
5.31593e-05
5.03674e-05
-7.18209e-07
5.07994e-05
-1.30482e-06
5.10966e-05
-1.44644e-06
5.12718e-05
-1.42541e-06
5.13971e-05
-1.41408e-06
5.14914e-05
-1.42882e-06
5.15368e-05
-1.44877e-06
5.15162e-05
-1.46439e-06
5.14208e-05
-1.4721e-06
-1.47545e-06
5.12506e-05
4.92818e-05
4.7977e-05
4.65305e-05
4.51051e-05
4.3691e-05
4.22622e-05
4.08135e-05
3.93491e-05
3.7877e-05
3.64015e-05
3.0227e-08
-3.0227e-08
1.00272e-07
-7.00449e-08
1.38837e-07
-3.85655e-08
1.11548e-07
2.72892e-08
3.54142e-08
7.6134e-08
-5.21088e-08
8.75231e-08
-1.24267e-07
7.21584e-08
-1.71705e-07
4.7438e-08
-2.00256e-07
2.85508e-08
-2.22256e-07
2.19998e-08
-2.47869e-07
2.5613e-08
-2.81444e-07
3.35756e-08
-3.22433e-07
4.09887e-08
-3.6804e-07
4.56072e-08
-4.15396e-07
4.73555e-08
-4.62435e-07
4.70396e-08
-5.07781e-07
4.53457e-08
-5.50351e-07
4.25699e-08
-5.89076e-07
3.87248e-08
-6.22763e-07
3.36867e-08
-6.50133e-07
2.73708e-08
-6.70073e-07
1.99394e-08
-6.81393e-07
1.13205e-08
-6.82945e-07
1.55191e-09
-6.7616e-07
-6.78566e-09
-6.64984e-07
-1.11756e-08
-6.62245e-07
-2.7393e-09
-6.8852e-07
2.62755e-08
-7.78035e-07
8.95149e-08
-9.77136e-07
1.99101e-07
-1.33976e-06
3.6262e-07
-1.91495e-06
5.75195e-07
-2.72756e-06
8.12604e-07
-3.76498e-06
1.03742e-06
-4.97734e-06
1.21236e-06
-6.28983e-06
1.31249e-06
-7.62062e-06
1.33079e-06
-8.89747e-06
1.27685e-06
-1.00665e-05
1.16901e-06
-1.10764e-05
1.00989e-06
-1.18964e-05
8.2005e-07
-1.25088e-05
6.1236e-07
-1.29022e-05
3.93415e-07
-1.30761e-05
1.73875e-07
-1.30299e-05
-4.61555e-08
-1.27792e-05
-2.50742e-07
-1.23281e-05
-4.5111e-07
-1.1684e-05
-6.44031e-07
-1.08633e-05
-8.20702e-07
-9.88034e-06
-9.83e-07
-8.75865e-06
-1.12168e-06
-7.51547e-06
-1.24319e-06
-6.17796e-06
-1.33751e-06
-4.76748e-06
-1.41048e-06
-3.31479e-06
-1.45269e-06
-1.84348e-06
-1.47131e-06
-3.79431e-07
-1.46405e-06
1.05989e-06
-1.43932e-06
2.44993e-06
-1.39004e-06
3.77219e-06
-1.32226e-06
5.01019e-06
-1.23801e-06
6.15198e-06
-1.14179e-06
7.18816e-06
-1.03617e-06
8.11256e-06
-9.24404e-07
8.92179e-06
-8.09233e-07
9.61451e-06
-6.92719e-07
1.01917e-05
-5.77145e-07
1.06551e-05
-4.63437e-07
1.1009e-05
-3.5394e-07
1.12563e-05
-2.47248e-07
1.1402e-05
-1.45695e-07
1.145e-05
-4.80241e-08
1.1409e-05
4.09752e-08
1.1285e-05
1.24044e-07
1.10846e-05
2.00428e-07
1.08144e-05
2.70182e-07
1.0483e-05
3.31328e-07
1.00972e-05
3.85823e-07
9.66973e-06
4.27492e-07
9.21025e-06
4.59479e-07
8.73373e-06
4.76519e-07
8.24907e-06
4.84657e-07
7.77118e-06
4.7789e-07
7.3066e-06
4.6458e-07
6.86941e-06
4.37195e-07
6.46298e-06
4.06426e-07
6.09826e-06
3.6472e-07
5.77444e-06
3.23828e-07
5.48963e-06
2.84804e-07
2.74343e-07
8.61188e-08
-1.16346e-07
2.14608e-07
-1.98535e-07
2.72858e-07
-9.68152e-08
2.17765e-07
8.23821e-08
6.92523e-08
2.24647e-07
-1.18808e-07
2.75584e-07
-2.99217e-07
2.52567e-07
-4.50222e-07
1.98443e-07
-5.75803e-07
1.54132e-07
-6.91769e-07
1.37966e-07
-8.1211e-07
1.45954e-07
-9.43525e-07
1.64991e-07
-1.08636e-06
1.83819e-07
-1.23798e-06
1.97235e-07
-1.39554e-06
2.0491e-07
-1.55698e-06
2.0848e-07
-1.72119e-06
2.09559e-07
-1.88788e-06
2.09258e-07
-2.05769e-06
2.08536e-07
-2.23267e-06
2.08663e-07
-2.41692e-06
2.11622e-07
-2.61739e-06
2.20413e-07
-2.8452e-06
2.39131e-07
-3.11641e-06
2.72764e-07
-3.45115e-06
3.27946e-07
-3.87788e-06
4.15556e-07
-4.41927e-06
5.38651e-07
-5.09756e-06
7.04566e-07
-5.92526e-06
9.17214e-07
-6.89955e-06
1.1734e-06
-7.99762e-06
1.46069e-06
-9.17737e-06
1.75494e-06
-1.03845e-05
2.01971e-06
-1.15625e-05
2.2154e-06
-1.26613e-05
2.31123e-06
-1.364e-05
2.29113e-06
-1.44644e-05
2.15526e-06
-1.51077e-05
1.92007e-06
-1.55474e-05
1.60875e-06
-1.57791e-05
1.2416e-06
-1.57971e-05
8.38029e-07
-1.55967e-05
4.11966e-07
-1.51708e-05
-3.24493e-08
-1.45599e-05
-4.37003e-07
-1.37587e-05
-8.4742e-07
-1.2759e-05
-1.25041e-06
-1.15785e-05
-1.63162e-06
-1.02266e-05
-1.99597e-06
-8.72289e-06
-2.32438e-06
-7.07828e-06
-2.62761e-06
-5.32138e-06
-2.87858e-06
-3.4664e-06
-3.09817e-06
-1.54029e-06
-3.26362e-06
4.33974e-07
-3.38475e-06
2.42701e-06
-3.44572e-06
4.42327e-06
-3.46757e-06
6.39574e-06
-3.43652e-06
8.32245e-06
-3.36603e-06
1.01837e-05
-3.25125e-06
1.19648e-05
-3.10336e-06
1.36508e-05
-2.92401e-06
1.52318e-05
-2.72278e-06
1.66988e-05
-2.5032e-06
1.80469e-05
-2.27251e-06
1.92724e-05
-2.03479e-06
2.03742e-05
-1.79451e-06
2.13524e-05
-1.5553e-06
2.22083e-05
-1.31939e-06
2.29436e-05
-1.08921e-06
2.35617e-05
-8.65354e-07
2.40651e-05
-6.49063e-07
2.44575e-05
-4.40482e-07
2.47376e-05
-2.39137e-07
2.49064e-05
-4.47055e-08
2.49727e-05
1.34094e-07
2.49355e-05
3.07385e-07
2.47936e-05
4.73231e-07
2.45528e-05
6.26618e-07
2.42114e-05
7.68932e-07
2.37781e-05
8.92789e-07
2.32529e-05
1.0017e-06
2.26495e-05
1.08802e-06
2.19692e-05
1.15827e-06
2.12329e-05
1.2008e-06
2.04399e-05
1.2302e-06
1.96208e-05
1.22559e-06
1.8762e-05
1.22348e-06
1.79132e-05
1.17265e-06
1.7043e-05
1.155e-06
1.0564e-06
1.04162e-07
-2.20508e-07
2.07746e-07
-3.02118e-07
2.1467e-07
-1.03739e-07
8.94911e-08
2.07561e-07
-1.3028e-07
4.44418e-07
-3.91877e-07
5.3718e-07
-6.52438e-07
5.13128e-07
-8.9861e-07
4.44615e-07
-1.13549e-06
3.91008e-07
-1.37388e-06
3.76357e-07
-1.62112e-06
3.93196e-07
-1.87927e-06
4.23143e-07
-2.14785e-06
4.52397e-07
-2.42626e-06
4.75648e-07
-2.71454e-06
4.93188e-07
-3.01319e-06
5.07133e-07
-3.32309e-06
5.1945e-07
-3.64553e-06
5.31703e-07
-3.98289e-06
5.45899e-07
-4.33796e-06
5.63726e-07
-4.71434e-06
5.8801e-07
-5.117e-06
6.23068e-07
-5.55185e-06
6.73977e-07
-6.02428e-06
7.45195e-07
-6.54111e-06
8.44776e-07
-7.10361e-06
9.78058e-07
-7.71248e-06
1.14752e-06
-8.36035e-06
1.35244e-06
-9.03108e-06
1.58795e-06
-9.70026e-06
1.84258e-06
-1.03376e-05
2.09804e-06
-1.09133e-05
2.33063e-06
-1.13913e-05
2.49766e-06
-1.17422e-05
2.56639e-06
-1.19486e-05
2.51761e-06
-1.20025e-05
2.34506e-06
-1.18997e-05
2.0524e-06
-1.16409e-05
1.66126e-06
-1.12292e-05
1.19709e-06
-1.06678e-05
6.80184e-07
-9.95741e-06
1.27644e-07
-9.11333e-06
-4.32116e-07
-8.14634e-06
-9.99434e-07
-7.02301e-06
-1.56034e-06
-5.76612e-06
-2.10431e-06
-4.37874e-06
-2.63779e-06
-2.87072e-06
-3.13964e-06
-1.24299e-06
-3.62369e-06
4.86503e-07
-4.05387e-06
2.30377e-06
-4.44488e-06
4.19505e-06
-4.76986e-06
6.14518e-06
-5.0483e-06
8.12848e-06
-5.24692e-06
1.013e-05
-5.38628e-06
1.21271e-05
-5.44282e-06
1.40998e-05
-5.44028e-06
1.60265e-05
-5.36321e-06
1.78908e-05
-5.23035e-06
1.96762e-05
-5.03667e-06
2.13727e-05
-4.79984e-06
2.29688e-05
-4.52013e-06
2.44601e-05
-4.21406e-06
2.58402e-05
-3.88324e-06
2.71095e-05
-3.54186e-06
2.82654e-05
-3.19071e-06
2.93123e-05
-2.84137e-06
3.02495e-05
-2.49246e-06
3.10834e-05
-2.15338e-06
3.18145e-05
-1.82022e-06
3.24498e-05
-1.50073e-06
3.29894e-05
-1.18863e-06
3.34402e-05
-8.91294e-07
3.37998e-05
-5.98671e-07
3.40778e-05
-3.22781e-07
3.42606e-05
-4.86906e-08
3.43647e-05
2.03349e-07
3.43768e-05
4.61099e-07
3.43045e-05
6.98881e-07
3.41401e-05
9.33332e-07
3.38933e-05
1.13965e-06
3.35533e-05
1.34162e-06
3.31348e-05
1.50651e-06
3.2625e-05
1.66815e-06
3.20466e-05
1.77914e-06
3.13826e-05
1.89419e-06
3.06678e-05
1.94042e-06
2.98819e-05
2.00944e-06
2.90704e-05
1.9841e-06
2.82135e-05
2.01192e-06
1.92872e-06
4.45748e-08
-2.65083e-07
6.25607e-09
-2.63799e-07
-1.46883e-07
4.93994e-08
-3.79902e-07
4.4058e-07
-6.67981e-07
7.32497e-07
-9.81402e-07
8.50602e-07
-1.30547e-06
8.37195e-07
-1.63905e-06
7.782e-07
-1.98563e-06
7.37586e-07
-2.34338e-06
7.34102e-07
-2.70657e-06
7.56385e-07
-3.07053e-06
7.87103e-07
-3.43387e-06
8.15746e-07
-3.79697e-06
8.38747e-07
-4.16019e-06
8.56403e-07
-4.52309e-06
8.70035e-07
-4.88438e-06
8.80736e-07
-5.24219e-06
8.89513e-07
-5.59409e-06
8.978e-07
-5.93802e-06
9.07659e-07
-6.27187e-06
9.21865e-07
-6.59294e-06
9.44133e-07
-6.89892e-06
9.79957e-07
-7.1886e-06
1.03488e-06
-7.45836e-06
1.11453e-06
-7.70318e-06
1.22288e-06
-7.91627e-06
1.36061e-06
-8.08812e-06
1.52429e-06
-8.20522e-06
1.70504e-06
-8.25007e-06
1.88743e-06
-8.20365e-06
2.05162e-06
-8.0443e-06
2.17129e-06
-7.76315e-06
2.21651e-06
-7.35691e-06
2.16014e-06
-6.82857e-06
1.98927e-06
-6.19031e-06
1.70679e-06
-5.44767e-06
1.30976e-06
-4.60848e-06
8.22065e-07
-3.68224e-06
2.70847e-07
-2.66938e-06
-3.32667e-07
-1.57844e-06
-9.63305e-07
-3.97759e-07
-1.61279e-06
8.68227e-07
-2.26542e-06
2.22994e-06
-2.92205e-06
3.68665e-06
-3.56102e-06
5.2429e-06
-4.19404e-06
6.89144e-06
-4.78818e-06
8.62794e-06
-5.3602e-06
1.04396e-05
-5.86557e-06
1.23177e-05
-6.32291e-06
1.42422e-05
-6.6944e-06
1.61945e-05
-7.00055e-06
1.81542e-05
-7.2067e-06
2.0101e-05
-7.33305e-06
2.20158e-05
-7.35763e-06
2.38776e-05
-7.3021e-06
2.56709e-05
-7.15645e-06
2.73813e-05
-6.94077e-06
2.89984e-05
-6.65375e-06
3.05144e-05
-6.31589e-06
3.19243e-05
-5.92999e-06
3.3226e-05
-5.51581e-06
3.44188e-05
-5.07597e-06
3.5505e-05
-4.62809e-06
3.64866e-05
-4.17233e-06
3.73691e-05
-3.72381e-06
3.81555e-05
-3.2789e-06
3.88527e-05
-2.85061e-06
3.9464e-05
-2.43153e-06
3.99961e-05
-2.03279e-06
4.04514e-05
-1.64393e-06
4.08352e-05
-1.27512e-06
4.115e-05
-9.13493e-07
4.13983e-05
-5.71056e-07
4.15836e-05
-2.33962e-07
4.17002e-05
8.67363e-08
4.17489e-05
4.12413e-07
4.17305e-05
7.17237e-07
4.16419e-05
1.02191e-06
4.14852e-05
1.29635e-06
4.12551e-05
1.5718e-06
4.09579e-05
1.80371e-06
4.05861e-05
2.03993e-06
4.01511e-05
2.21411e-06
3.96448e-05
2.40053e-06
3.90827e-05
2.50253e-06
3.84625e-05
2.62964e-06
3.77966e-05
2.65e-06
3.70945e-05
2.71396e-06
2.66068e-06
-7.21771e-08
-1.92906e-07
-3.0773e-07
-2.82461e-08
-6.55727e-07
3.97396e-07
-1.05496e-06
8.39816e-07
-1.44966e-06
1.1272e-06
-1.82886e-06
1.22979e-06
-2.20851e-06
1.21685e-06
-2.60249e-06
1.17219e-06
-3.00626e-06
1.14135e-06
-3.40441e-06
1.13225e-06
-3.78361e-06
1.13559e-06
-4.13775e-06
1.14124e-06
-4.46596e-06
1.14395e-06
-4.76924e-06
1.14203e-06
-5.04809e-06
1.13526e-06
-5.30179e-06
1.12374e-06
-5.5287e-06
1.10765e-06
-5.72652e-06
1.08733e-06
-5.89239e-06
1.06367e-06
-6.02303e-06
1.0383e-06
-6.11486e-06
1.0137e-06
-6.16381e-06
9.93075e-07
-6.16469e-06
9.80838e-07
-6.11218e-06
9.82373e-07
-6.00081e-06
1.00317e-06
-5.82409e-06
1.04615e-06
-5.57497e-06
1.11149e-06
-5.24559e-06
1.19491e-06
-4.82794e-06
1.28739e-06
-4.31202e-06
1.37151e-06
-3.69403e-06
1.43363e-06
-2.96954e-06
1.4468e-06
-2.14175e-06
1.38872e-06
-1.22001e-06
1.23841e-06
-2.22058e-07
9.91316e-07
8.51872e-07
6.32863e-07
1.97844e-06
1.83188e-07
3.15784e-06
-3.57337e-07
4.38796e-06
-9.59264e-07
5.66858e-06
-1.61329e-06
7.00222e-06
-2.29695e-06
8.40262e-06
-3.01319e-06
9.87399e-06
-3.73679e-06
1.14247e-05
-4.47275e-06
1.30557e-05
-5.19205e-06
1.47646e-05
-5.90294e-06
1.65451e-05
-6.56864e-06
1.83821e-05
-7.1972e-06
2.02649e-05
-7.74841e-06
2.21716e-05
-8.22958e-06
2.40855e-05
-8.60832e-06
2.59795e-05
-8.89449e-06
2.78389e-05
-9.0661e-06
2.96394e-05
-9.13359e-06
3.13705e-05
-9.08872e-06
3.30125e-05
-8.94409e-06
3.45602e-05
-8.70419e-06
3.60013e-05
-8.38181e-06
3.73373e-05
-7.98978e-06
3.85619e-05
-7.54046e-06
3.96819e-05
-7.05002e-06
4.06949e-05
-6.52881e-06
4.16112e-05
-5.99227e-06
4.24304e-05
-5.44728e-06
4.31649e-05
-4.90683e-06
4.38148e-05
-4.37369e-06
4.43933e-05
-3.85738e-06
4.48999e-05
-3.35727e-06
4.53475e-05
-2.87909e-06
4.57345e-05
-2.4198e-06
4.60723e-05
-1.9817e-06
4.63576e-05
-1.56044e-06
4.66004e-05
-1.15632e-06
4.6795e-05
-7.65663e-07
4.69486e-05
-3.87568e-07
4.7063e-05
-2.76242e-08
4.71229e-05
3.52533e-07
4.71352e-05
7.04891e-07
4.70993e-05
1.05786e-06
4.70105e-05
1.38515e-06
4.6866e-05
1.7163e-06
4.66659e-05
2.00378e-06
4.64086e-05
2.2972e-06
4.60949e-05
2.52784e-06
4.57268e-05
2.76865e-06
4.53034e-05
2.92591e-06
4.48364e-05
3.09663e-06
4.43184e-05
3.16803e-06
4.37762e-05
3.2562e-06
3.23575e-06
-4.24005e-07
2.31099e-07
-1.0449e-06
5.92654e-07
-1.60071e-06
9.53197e-07
-2.04815e-06
1.28726e-06
-2.42424e-06
1.50329e-06
-2.77168e-06
1.57724e-06
-3.11528e-06
1.56044e-06
-3.45363e-06
1.51054e-06
-3.76725e-06
1.45497e-06
-4.04035e-06
1.40536e-06
-4.26466e-06
1.3599e-06
-4.43896e-06
1.31554e-06
-4.56556e-06
1.27054e-06
-4.6475e-06
1.22398e-06
-4.68737e-06
1.17512e-06
-4.68686e-06
1.12323e-06
-4.64694e-06
1.06772e-06
-4.56767e-06
1.00806e-06
-4.44822e-06
9.44216e-07
-4.28669e-06
8.76777e-07
-4.08013e-06
8.07132e-07
-3.82416e-06
7.37107e-07
-3.51282e-06
6.69501e-07
-3.13914e-06
6.08689e-07
-2.69529e-06
5.5932e-07
-2.17278e-06
5.23639e-07
-1.56363e-06
5.02345e-07
-8.60432e-07
4.91711e-07
-5.7052e-08
4.84011e-07
8.45743e-07
4.68716e-07
1.85291e-06
4.26467e-07
2.95931e-06
3.40397e-07
4.15538e-06
1.92648e-07
5.43071e-06
-3.69194e-08
6.76488e-06
-3.42858e-07
8.14639e-06
-7.48651e-07
9.56935e-06
-1.23976e-06
1.10264e-05
-1.8144e-06
1.25204e-05
-2.4533e-06
1.40575e-05
-3.1503e-06
1.5646e-05
-3.88551e-06
1.72888e-05
-4.65599e-06
1.89904e-05
-5.43836e-06
2.07467e-05
-6.22909e-06
2.25551e-05
-7.00041e-06
2.43996e-05
-7.74746e-06
2.62702e-05
-8.43918e-06
2.81414e-05
-9.06847e-06
2.99996e-05
-9.60657e-06
3.18163e-05
-1.00463e-05
3.3577e-05
-1.0369e-05
3.52555e-05
-1.0573e-05
3.68435e-05
-1.06541e-05
3.83227e-05
-1.06128e-05
3.96927e-05
-1.04588e-05
4.09422e-05
-1.01935e-05
4.20781e-05
-9.84013e-06
4.3095e-05
-9.39869e-06
4.40068e-05
-8.90158e-06
4.48113e-05
-8.34501e-06
4.55266e-05
-7.76526e-06
4.61509e-05
-7.15317e-06
4.67037e-05
-6.54498e-06
4.71826e-05
-5.9262e-06
4.7607e-05
-5.33125e-06
4.79736e-05
-4.74029e-06
4.83009e-05
-4.18469e-06
4.85842e-05
-3.64052e-06
4.88404e-05
-3.1353e-06
4.90634e-05
-2.64286e-06
4.9268e-05
-2.18626e-06
4.94463e-05
-1.73882e-06
4.96104e-05
-1.32036e-06
4.97515e-05
-9.06786e-07
4.98771e-05
-5.13183e-07
4.99781e-05
-1.28545e-07
5.00614e-05
2.69189e-07
5.01138e-05
6.52515e-07
5.01386e-05
1.03307e-06
5.01279e-05
1.3958e-06
5.00813e-05
1.76291e-06
4.99915e-05
2.09354e-06
4.98616e-05
2.42715e-06
4.96828e-05
2.70664e-06
4.94643e-05
2.9871e-06
4.91942e-05
3.19602e-06
4.88913e-05
3.39953e-06
4.85381e-05
3.52122e-06
4.81669e-05
3.62742e-06
3.64586e-06
-3.99156e-07
6.30255e-07
-1.23277e-06
1.42627e-06
-2.04706e-06
1.76749e-06
-2.65942e-06
1.89962e-06
-3.0639e-06
1.90778e-06
-3.31999e-06
1.83332e-06
-3.4791e-06
1.71955e-06
-3.56461e-06
1.59605e-06
-3.58571e-06
1.47608e-06
-3.54228e-06
1.36192e-06
-3.43577e-06
1.2534e-06
-3.27002e-06
1.14979e-06
-3.04993e-06
1.05044e-06
-2.78035e-06
9.54398e-07
-2.46571e-06
8.60484e-07
-2.10963e-06
7.67154e-07
-1.71522e-06
6.73312e-07
-1.28469e-06
5.77531e-07
-8.193e-07
4.78825e-07
-3.19131e-07
3.76608e-07
2.17217e-07
2.70784e-07
7.92681e-07
1.61643e-07
1.41276e-06
4.94248e-08
2.082e-06
-6.05583e-08
2.80769e-06
-1.66365e-07
3.6003e-06
-2.68972e-07
4.46973e-06
-3.67083e-07
5.42571e-06
-4.64272e-07
6.47557e-06
-5.65844e-07
7.62547e-06
-6.81189e-07
8.8745e-06
-8.22561e-07
1.02195e-05
-1.00458e-06
1.16513e-05
-1.2392e-06
1.31563e-05
-1.5419e-06
1.47299e-05
-1.91643e-06
1.63551e-05
-2.3739e-06
1.80243e-05
-2.90893e-06
1.97293e-05
-3.51945e-06
2.14694e-05
-4.19337e-06
2.32416e-05
-4.92251e-06
2.50459e-05
-5.68976e-06
2.68734e-05
-6.48348e-06
2.87184e-05
-7.28338e-06
3.05646e-05
-8.07532e-06
3.24003e-05
-8.83615e-06
3.42021e-05
-9.54922e-06
3.59531e-05
-1.01901e-05
3.76274e-05
-1.07428e-05
3.92101e-05
-1.11893e-05
4.06796e-05
-1.15158e-05
4.20252e-05
-1.17146e-05
4.32341e-05
-1.17819e-05
4.43066e-05
-1.17266e-05
4.52407e-05
-1.15469e-05
4.60456e-05
-1.12637e-05
4.67261e-05
-1.0874e-05
4.72975e-05
-1.04116e-05
4.77677e-05
-9.86884e-06
4.81557e-05
-9.28961e-06
4.84681e-05
-8.6574e-06
4.87248e-05
-8.02198e-06
4.89285e-05
-7.35686e-06
4.90982e-05
-6.71465e-06
4.92326e-05
-6.06064e-06
4.93496e-05
-5.44827e-06
4.94449e-05
-4.83555e-06
4.95354e-05
-4.27515e-06
4.96146e-05
-3.71976e-06
4.96984e-05
-3.21908e-06
4.97789e-05
-2.72335e-06
4.98687e-05
-2.27611e-06
4.996e-05
-1.83014e-06
5.00616e-05
-1.42191e-06
5.01652e-05
-1.0104e-06
5.02755e-05
-6.23529e-07
5.03805e-05
-2.33479e-07
5.04933e-05
1.56337e-07
5.05938e-05
5.52055e-07
5.06854e-05
9.41423e-07
5.07561e-05
1.32508e-06
5.08104e-05
1.70866e-06
5.08333e-05
2.07065e-06
5.08317e-05
2.42873e-06
5.07896e-05
2.74877e-06
5.07208e-05
3.05585e-06
5.06069e-05
3.30998e-06
5.04695e-05
3.53691e-06
5.02865e-05
3.70424e-06
5.00885e-05
3.82536e-06
3.88628e-06
-1.84801e-06
2.47826e-06
-2.65127e-06
2.22953e-06
-3.00257e-06
2.11879e-06
-3.05926e-06
1.95631e-06
-2.91152e-06
1.76004e-06
-2.63889e-06
1.56069e-06
-2.28186e-06
1.36251e-06
-1.854e-06
1.16819e-06
-1.3639e-06
9.85978e-07
-8.18864e-07
8.16882e-07
-2.25109e-07
6.59643e-07
4.11799e-07
5.12882e-07
1.08691e-06
3.75328e-07
1.79616e-06
2.45156e-07
2.53605e-06
1.20593e-07
3.3045e-06
-1.30009e-09
4.09847e-06
-1.20656e-07
4.91664e-06
-2.4064e-07
5.75783e-06
-3.62369e-07
6.62166e-06
-4.87217e-07
7.50841e-06
-6.15971e-07
8.41936e-06
-7.49306e-07
9.35564e-06
-8.86849e-07
1.03227e-05
-1.02765e-06
1.13274e-05
-1.17104e-06
1.23766e-05
-1.31816e-06
1.3479e-05
-1.46954e-06
1.46435e-05
-1.62873e-06
1.58777e-05
-1.80004e-06
1.71881e-05
-1.99154e-06
1.85771e-05
-2.21157e-06
2.00442e-05
-2.47167e-06
2.15855e-05
-2.7805e-06
2.31932e-05
-3.14961e-06
2.48602e-05
-3.5834e-06
2.65724e-05
-4.08616e-06
2.83192e-05
-4.65575e-06
3.00875e-05
-5.28772e-06
3.18665e-05
-5.97242e-06
3.36433e-05
-6.69925e-06
3.54067e-05
-7.4532e-06
3.71373e-05
-8.21404e-06
3.88182e-05
-8.96432e-06
4.04275e-05
-9.68464e-06
4.19465e-05
-1.03551e-05
4.33525e-05
-1.09553e-05
4.463e-05
-1.14676e-05
4.57626e-05
-1.18754e-05
4.67415e-05
-1.21682e-05
4.75616e-05
-1.23358e-05
4.8225e-05
-1.23781e-05
4.87362e-05
-1.22931e-05
4.91083e-05
-1.20987e-05
4.93577e-05
-1.17963e-05
4.95021e-05
-1.14082e-05
4.95612e-05
-1.0933e-05
4.95539e-05
-1.04043e-05
4.94978e-05
-9.8128e-06
4.94096e-05
-9.20136e-06
4.93e-05
-8.54781e-06
4.9182e-05
-7.90402e-06
4.90592e-05
-7.23403e-06
4.89429e-05
-6.59836e-06
4.88311e-05
-5.94883e-06
4.87344e-05
-5.35158e-06
4.86468e-05
-4.74798e-06
4.85802e-05
-4.20854e-06
4.85276e-05
-3.6671e-06
4.85015e-05
-3.19303e-06
4.84932e-05
-2.71503e-06
4.85137e-05
-2.29656e-06
4.8554e-05
-1.87051e-06
4.86226e-05
-1.49044e-06
4.87093e-05
-1.09715e-06
4.88198e-05
-7.34038e-07
4.89392e-05
-3.52847e-07
4.90801e-05
1.5373e-08
4.92232e-05
4.09008e-07
4.93692e-05
7.95427e-07
4.95043e-05
1.18999e-06
4.9635e-05
1.57792e-06
4.97435e-05
1.96219e-06
4.98371e-05
2.33514e-06
4.98984e-05
2.68744e-06
4.99405e-05
3.01374e-06
4.99457e-05
3.30479e-06
4.99327e-05
3.54995e-06
4.98831e-05
3.75377e-06
4.98213e-05
3.88718e-06
3.98883e-06
-1.05507e-06
3.53333e-06
-1.08649e-06
2.26095e-06
-7.02299e-07
1.73459e-06
-2.20362e-08
1.27605e-06
8.61246e-07
8.76755e-07
1.87012e-06
5.51816e-07
2.9468e-06
2.85831e-07
4.0586e-06
5.63995e-08
5.1776e-06
-1.33028e-07
6.29923e-06
-3.0475e-07
7.42202e-06
-4.63144e-07
8.5435e-06
-6.08598e-07
9.66236e-06
-7.43532e-07
1.07786e-05
-8.71042e-07
1.18928e-05
-9.93598e-07
1.30049e-05
-1.11345e-06
1.41165e-05
-1.23224e-06
1.52279e-05
-1.35203e-06
1.634e-05
-1.47447e-06
1.74538e-05
-1.60107e-06
1.85709e-05
-1.73302e-06
1.96928e-05
-1.87118e-06
2.08221e-05
-2.01619e-06
2.19629e-05
-2.16847e-06
2.31201e-05
-2.32824e-06
2.42988e-05
-2.4968e-06
2.55051e-05
-2.67592e-06
2.67452e-05
-2.86882e-06
2.80247e-05
-3.07954e-06
2.93476e-05
-3.31439e-06
3.07156e-05
-3.57966e-06
3.21277e-05
-3.8837e-06
3.358e-05
-4.23287e-06
3.50652e-05
-4.63475e-06
3.65754e-05
-5.09365e-06
3.80962e-05
-5.6069e-06
3.96129e-05
-6.17252e-06
4.11092e-05
-6.78397e-06
4.2568e-05
-7.43123e-06
4.39695e-05
-8.10073e-06
4.52934e-05
-8.77707e-06
4.65208e-05
-9.44148e-06
4.76328e-05
-1.00763e-05
4.86109e-05
-1.06627e-05
4.94404e-05
-1.11846e-05
5.01105e-05
-1.16253e-05
5.06159e-05
-1.19731e-05
5.09568e-05
-1.22163e-05
5.11394e-05
-1.23508e-05
5.11765e-05
-1.2373e-05
5.10863e-05
-1.22878e-05
5.08918e-05
-1.20986e-05
5.06157e-05
-1.18226e-05
5.02834e-05
-1.1464e-05
4.99156e-05
-1.10404e-05
4.95346e-05
-1.05519e-05
4.91536e-05
-1.00233e-05
4.87885e-05
-9.44769e-06
4.84438e-05
-8.85669e-06
4.81259e-05
-8.22983e-06
4.78327e-05
-7.61085e-06
4.75651e-05
-6.96644e-06
4.73223e-05
-6.35559e-06
4.71024e-05
-5.72894e-06
4.6907e-05
-5.15611e-06
4.67315e-05
-4.57249e-06
4.65827e-05
-4.05977e-06
4.64565e-05
-3.54088e-06
4.63633e-05
-3.09986e-06
4.62959e-05
-2.64755e-06
4.62665e-05
-2.26718e-06
4.62654e-05
-1.86942e-06
4.63037e-05
-1.5287e-06
4.63696e-05
-1.16309e-06
4.64701e-05
-8.34587e-07
4.65915e-05
-4.7422e-07
4.67437e-05
-1.36827e-07
4.69065e-05
2.46193e-07
4.70821e-05
6.19849e-07
4.72549e-05
1.01723e-06
4.74278e-05
1.40502e-06
4.7585e-05
1.805e-06
4.77306e-05
2.18951e-06
4.78505e-05
2.56749e-06
4.79517e-05
2.91259e-06
4.80219e-05
3.23461e-06
4.80728e-05
3.49902e-06
4.80944e-05
3.73213e-06
4.81041e-05
3.87751e-06
4.00776e-06
3.70321e-06
-1.69885e-07
6.46441e-06
-5.00247e-07
8.88248e-06
-6.83468e-07
1.10228e-05
-8.64253e-07
1.29394e-05
-1.03988e-06
1.46922e-05
-1.20101e-06
1.63215e-05
-1.34341e-06
1.78385e-05
-1.46064e-06
1.92786e-05
-1.57314e-06
2.06527e-05
-1.67878e-06
2.19676e-05
-1.77805e-06
2.3232e-05
-1.87299e-06
2.44534e-05
-1.96497e-06
2.56376e-05
-2.05528e-06
2.67892e-05
-2.14519e-06
2.79118e-05
-2.23605e-06
2.90089e-05
-2.32931e-06
3.00832e-05
-2.42634e-06
3.11374e-05
-2.52864e-06
3.21738e-05
-2.63744e-06
3.31947e-05
-2.754e-06
3.42027e-05
-2.87916e-06
3.52004e-05
-3.01389e-06
3.61909e-05
-3.15893e-06
3.71778e-05
-3.31513e-06
3.81653e-05
-3.4843e-06
3.91572e-05
-3.6679e-06
4.0157e-05
-3.86861e-06
4.11675e-05
-4.09001e-06
4.219e-05
-4.33684e-06
4.32239e-05
-4.61358e-06
4.42659e-05
-4.92574e-06
4.53105e-05
-5.27746e-06
4.6348e-05
-5.6723e-06
4.73654e-05
-6.111e-06
4.83497e-05
-6.5912e-06
4.92853e-05
-7.10813e-06
5.01552e-05
-7.65389e-06
5.09422e-05
-8.21821e-06
5.16291e-05
-8.78766e-06
5.22002e-05
-9.34809e-06
5.26422e-05
-9.88352e-06
5.29448e-05
-1.03789e-05
5.3102e-05
-1.08199e-05
5.31131e-05
-1.11957e-05
5.29836e-05
-1.14958e-05
5.27247e-05
-1.17142e-05
5.23534e-05
-1.1845e-05
5.18902e-05
-1.18876e-05
5.13597e-05
-1.18424e-05
5.07875e-05
-1.17157e-05
5.01995e-05
-1.15106e-05
4.96154e-05
-1.12384e-05
4.90527e-05
-1.09014e-05
4.85205e-05
-1.05082e-05
4.80258e-05
-1.00572e-05
4.75668e-05
-9.5643e-06
4.71458e-05
-9.02667e-06
4.67536e-05
-8.46452e-06
4.6389e-05
-7.86522e-06
4.60383e-05
-7.26022e-06
4.57036e-05
-6.63174e-06
4.53767e-05
-6.02861e-06
4.50629e-05
-5.41517e-06
4.47587e-05
-4.85195e-06
4.44707e-05
-4.28444e-06
4.42022e-05
-3.79129e-06
4.39586e-05
-3.29733e-06
4.37478e-05
-2.88906e-06
4.357e-05
-2.46975e-06
4.34385e-05
-2.13567e-06
4.33458e-05
-1.77671e-06
4.33071e-05
-1.49001e-06
4.33084e-05
-1.16441e-06
4.33622e-05
-8.88312e-07
4.3452e-05
-5.64086e-07
4.35863e-05
-2.71135e-07
4.37497e-05
8.28083e-08
4.39411e-05
4.28425e-07
4.4144e-05
8.14319e-07
4.43574e-05
1.19162e-06
4.45647e-05
1.59778e-06
4.47657e-05
1.98849e-06
4.49467e-05
2.38644e-06
4.5108e-05
2.75134e-06
4.52393e-05
3.10335e-06
4.53456e-05
3.39263e-06
4.54196e-05
3.65817e-06
4.54769e-05
3.82021e-06
3.96778e-06
3.87356e-05
-1.78315e-08
3.87327e-05
-4.97373e-07
3.89049e-05
-8.55704e-07
3.91713e-05
-1.13062e-06
3.94957e-05
-1.36422e-06
3.98698e-05
-1.57518e-06
4.02933e-05
-1.76691e-06
4.07699e-05
-1.93719e-06
4.12753e-05
-2.07863e-06
4.18005e-05
-2.20398e-06
4.23395e-05
-2.31705e-06
4.28869e-05
-2.42034e-06
4.34383e-05
-2.51634e-06
4.39901e-05
-2.60716e-06
4.45399e-05
-2.69492e-06
4.50853e-05
-2.78144e-06
4.56247e-05
-2.86875e-06
4.61569e-05
-2.95851e-06
4.66808e-05
-3.05261e-06
4.71959e-05
-3.15252e-06
4.77017e-05
-3.25984e-06
4.81984e-05
-3.37577e-06
4.86861e-05
-3.50162e-06
4.91657e-05
-3.63855e-06
4.96384e-05
-3.78784e-06
5.01052e-05
-3.95105e-06
5.05671e-05
-4.12982e-06
5.1025e-05
-4.32656e-06
5.14789e-05
-4.54387e-06
5.19273e-05
-4.7852e-06
5.23672e-05
-5.05352e-06
5.27937e-05
-5.35221e-06
5.31994e-05
-5.68322e-06
5.3575e-05
-6.0479e-06
5.39093e-05
-6.44528e-06
5.4191e-05
-6.87293e-06
5.44084e-05
-7.32547e-06
5.45498e-05
-7.79528e-06
5.46048e-05
-8.27324e-06
5.45653e-05
-8.74816e-06
5.44262e-05
-9.20904e-06
5.4186e-05
-9.64331e-06
5.38463e-05
-1.00393e-05
5.34144e-05
-1.0388e-05
5.29029e-05
-1.06842e-05
5.23278e-05
-1.09207e-05
5.17079e-05
-1.10943e-05
5.10645e-05
-1.12016e-05
5.04171e-05
-1.12402e-05
4.97808e-05
-1.12061e-05
4.91655e-05
-1.11004e-05
4.85791e-05
-1.09242e-05
4.80238e-05
-1.06831e-05
4.74972e-05
-1.03747e-05
4.69896e-05
-1.00006e-05
4.64923e-05
-9.55988e-06
4.59945e-05
-9.06656e-06
4.54923e-05
-8.52448e-06
4.49763e-05
-7.94848e-06
4.44472e-05
-7.33614e-06
4.3898e-05
-6.71098e-06
4.33394e-05
-6.07317e-06
4.27677e-05
-5.45687e-06
4.21989e-05
-4.84644e-06
4.16308e-05
-4.28383e-06
4.10858e-05
-3.73939e-06
4.05652e-05
-3.27075e-06
4.00867e-05
-2.81878e-06
3.9651e-05
-2.45333e-06
3.92711e-05
-2.08988e-06
3.89544e-05
-1.81899e-06
3.87024e-05
-1.52471e-06
3.85294e-05
-1.31697e-06
3.84216e-05
-1.0566e-06
3.83991e-05
-8.65811e-07
3.84361e-05
-6.01146e-07
3.85513e-05
-3.86282e-07
3.87185e-05
-8.44322e-08
3.895e-05
1.96936e-07
3.92141e-05
5.50197e-07
3.95187e-05
8.87049e-07
3.98344e-05
1.28209e-06
4.01617e-05
1.66122e-06
4.0477e-05
2.07106e-06
4.07784e-05
2.45002e-06
4.10482e-05
2.83353e-06
4.12889e-05
3.15192e-06
4.14866e-05
3.46044e-06
4.16584e-05
3.64843e-06
3.82791e-06
5.30572e-05
4.61705e-08
5.29866e-05
-4.26801e-07
5.29724e-05
-8.41524e-07
5.30094e-05
-1.16759e-06
5.30701e-05
-1.42495e-06
5.31367e-05
-1.64177e-06
5.32049e-05
-1.83513e-06
5.32778e-05
-2.01006e-06
5.33651e-05
-2.16595e-06
5.34646e-05
-2.3035e-06
5.35727e-05
-2.4251e-06
5.36861e-05
-2.53371e-06
5.38022e-05
-2.63245e-06
5.3919e-05
-2.72394e-06
5.40348e-05
-2.81071e-06
5.41481e-05
-2.89474e-06
5.42576e-05
-2.97825e-06
5.4362e-05
-3.06296e-06
5.44603e-05
-3.15093e-06
5.45516e-05
-3.24376e-06
5.4635e-05
-3.34329e-06
5.47102e-05
-3.45095e-06
5.47769e-05
-3.56835e-06
5.48352e-05
-3.69687e-06
5.48854e-05
-3.83804e-06
5.49278e-05
-3.99338e-06
5.49626e-05
-4.16461e-06
5.49897e-05
-4.35371e-06
5.50086e-05
-4.56276e-06
5.50176e-05
-4.79418e-06
5.5014e-05
-5.04997e-06
5.49941e-05
-5.33227e-06
5.49527e-05
-5.64185e-06
5.48836e-05
-5.97879e-06
5.47802e-05
-6.34183e-06
5.46366e-05
-6.72933e-06
5.44471e-05
-7.136e-06
5.42075e-05
-7.55569e-06
5.39152e-05
-7.98094e-06
5.35701e-05
-8.403e-06
5.31746e-05
-8.81358e-06
5.27335e-05
-9.20219e-06
5.22547e-05
-9.56052e-06
5.17462e-05
-9.87939e-06
5.12152e-05
-1.01532e-05
5.06697e-05
-1.03752e-05
5.01172e-05
-1.05418e-05
4.95634e-05
-1.06478e-05
4.90091e-05
-1.06858e-05
4.84481e-05
-1.06451e-05
4.7872e-05
-1.05244e-05
4.72725e-05
-1.03247e-05
4.66388e-05
-1.00494e-05
4.59614e-05
-9.69734e-06
4.5232e-05
-9.27116e-06
4.44479e-05
-8.77581e-06
4.36083e-05
-8.22691e-06
4.27165e-05
-7.63277e-06
4.17745e-05
-7.0064e-06
4.07947e-05
-6.35635e-06
3.97902e-05
-5.70649e-06
3.87819e-05
-5.06493e-06
3.77755e-05
-4.45047e-06
3.67885e-05
-3.85935e-06
3.58267e-05
-3.32207e-06
3.49179e-05
-2.83063e-06
3.4065e-05
-2.41782e-06
3.32908e-05
-2.04456e-06
3.25898e-05
-1.75234e-06
3.19856e-05
-1.48567e-06
3.14726e-05
-1.30598e-06
3.10683e-05
-1.12041e-06
3.07715e-05
-1.02026e-06
3.05849e-05
-8.69961e-07
3.05171e-05
-7.98002e-07
3.05482e-05
-6.32231e-07
3.06989e-05
-5.36971e-07
3.09241e-05
-3.09668e-07
3.1256e-05
-1.34998e-07
3.16409e-05
1.65371e-07
3.21066e-05
4.21349e-07
3.25984e-05
7.90258e-07
3.31349e-05
1.12477e-06
3.36649e-05
1.54102e-06
3.41975e-05
1.91741e-06
3.46949e-05
2.33613e-06
3.51633e-05
2.6835e-06
3.55757e-05
3.04808e-06
3.59561e-05
3.26805e-06
3.51689e-06
5.43668e-05
-2.89146e-07
5.45498e-05
-6.09756e-07
5.46543e-05
-9.46039e-07
5.47394e-05
-1.2527e-06
5.48219e-05
-1.50742e-06
5.48964e-05
-1.71632e-06
5.49561e-05
-1.89481e-06
5.50001e-05
-2.05405e-06
5.50329e-05
-2.19875e-06
5.50592e-05
-2.32985e-06
5.50816e-05
-2.4475e-06