/*--------------------------------*- C++ -*----------------------------------*\
| =========                 |                                                 |
| \\      /  F ield         | OpenFOAM: The Open Source CFD Toolbox           |
|  \\    /   O peration     | Version:  2306                                  |
|   \\  /    A nd           | Website:  www.openfoam.com                      |
|    \\/     M anipulation  |                                                 |
\*---------------------------------------------------------------------------*/
FoamFile
{
    version     2.0;
    format      ascii;
    arch        "LSB;label=32;scalar=64";
    class       volVectorField;
    location    "2";
    object      U;
}
// * * * * * * * * * * * * * * * * * * * * * * * * * * * * * * * * * * * * * //

dimensions      [0 1 -1 0 0 0 0];

internalField   nonuniform List<vector> 
1900
(
(0.984226 0.00727109 0)
(0.961838 0.0216976 0)
(0.952309 0.018133 0)
(0.918888 0.0253026 0)
(0.903497 0.0153599 0)
(0.863481 0.0257212 0)
(0.852568 0.0114529 0)
(0.812802 0.0266423 0)
(0.810389 0.00430676 0)
(0.772076 0.0257705 0)
(1.00254 0.0115478 0)
(1.00449 0.0258316 0)
(1.01945 0.0289065 0)
(1.02208 0.0303667 0)
(1.03499 0.0278743 0)
(1.03422 0.0282286 0)
(1.04437 0.0255216 0)
(1.04332 0.0247153 0)
(1.05189 0.0201545 0)
(1.05328 0.0154761 0)
(1.00048 0.00386875 0)
(1.0042 0.0111085 0)
(1.01257 0.0139138 0)
(1.02119 0.01566 0)
(1.03163 0.014525 0)
(1.04069 0.0141578 0)
(1.05019 0.0120069 0)
(1.0587 0.0104182 0)
(1.06728 0.00659365 0)
(1.07526 0.00216415 0)
(1.00007 0.00206018 0)
(1.00314 0.00578608 0)
(1.0089 0.00795851 0)
(1.01652 0.00888189 0)
(1.02533 0.00833852 0)
(1.0344 0.0071453 0)
(1.04336 0.00525447 0)
(1.05196 0.00293495 0)
(1.06017 -8.39154e-05 0)
(1.06789 -0.00387247 0)
(1.00003 0.000405134 0)
(1.00261 0.00111162 0)
(1.00738 0.0013265 0)
(1.01403 0.000986791 0)
(1.02193 1.29628e-05 0)
(1.03037 -0.001447 0)
(1.03882 -0.0033637 0)
(1.04695 -0.00571926 0)
(1.05461 -0.00857092 0)
(1.06174 -0.01199 0)
(1.00003 -0.0010793 0)
(1.00255 -0.00308626 0)
(1.00719 -0.00485403 0)
(1.01364 -0.00634945 0)
(1.0213 -0.00771915 0)
(1.02944 -0.00917224 0)
(1.03752 -0.0108972 0)
(1.04523 -0.013016 0)
(1.05244 -0.0155725 0)
(1.05916 -0.0185438 0)
(1.00003 -0.00272741 0)
(1.00302 -0.00748474 0)
(1.00834 -0.0111513 0)
(1.01542 -0.0136374 0)
(1.0234 -0.0153232 0)
(1.03153 -0.0167642 0)
(1.03935 -0.0183695 0)
(1.04668 -0.0203239 0)
(1.05352 -0.0226241 0)
(1.05989 -0.0251866 0)
(1.00004 -0.0047834 0)
(1.0044 -0.0122771 0)
(1.01135 -0.0169942 0)
(1.01974 -0.0194654 0)
(1.0283 -0.0208425 0)
(1.03625 -0.0220782 0)
(1.04337 -0.0236244 0)
(1.04975 -0.0255125 0)
(1.0555 -0.0276056 0)
(1.06065 -0.029775 0)
(1.00006 -0.0121279 0)
(1.0072 -0.0259805 0)
(1.01554 -0.03148 0)
(1.0228 -0.032656 0)
(1.02781 -0.0327735 0)
(1.03052 -0.0331918 0)
(1.03143 -0.034025 0)
(1.03098 -0.0350139 0)
(1.02939 -0.035945 0)
(1.02665 -0.0367628 0)
(0.980776 -0.00916619 0)
(0.964572 -0.0188304 0)
(0.945416 -0.0220625 0)
(0.920702 -0.022212 0)
(0.891845 -0.0217783 0)
(0.861437 -0.0216335 0)
(0.831066 -0.0216867 0)
(0.801204 -0.021705 0)
(0.771768 -0.0215646 0)
(0.742501 -0.0212835 0)
(7.78712e-05 1.82608e-05 0)
(0.00121401 -0.000329263 0)
(0.00268739 -0.000142916 0)
(0.00279614 0.000275713 0)
(0.00162992 0.000546954 0)
(-0.000178693 0.000520563 0)
(-0.00186665 0.000323232 0)
(-0.0030616 9.67769e-05 0)
(-0.00378435 -5.12311e-05 0)
(-0.00424206 -8.58486e-05 0)
(-0.0046829 -3.9122e-05 0)
(-0.00526245 3.45642e-05 0)
(-0.00601188 9.49604e-05 0)
(-0.00688755 0.000126439 0)
(-0.00782718 0.00013208 0)
(-0.00877904 0.000121872 0)
(-0.00970816 0.000102926 0)
(-0.0105906 7.70533e-05 0)
(-0.0114053 4.18485e-05 0)
(-0.0121297 -8.77214e-06 0)
(-0.0127388 -8.5645e-05 0)
(-0.0132082 -0.000206755 0)
(-0.0135146 -0.000397521 0)
(-0.0136312 -0.000692551 0)
(-0.0135552 -0.00112952 0)
(-0.0133339 -0.00172038 0)
(-0.0131252 -0.00246061 0)
(-0.0132844 -0.00318452 0)
(-0.0143215 -0.00363408 0)
(-0.017021 -0.00346041 0)
(-0.0224114 -0.00224349 0)
(-0.0315342 0.000290127 0)
(-0.0452552 0.00396756 0)
(-0.0638962 0.00812805 0)
(-0.0868482 0.011918 0)
(-0.112686 0.014672 0)
(-0.139675 0.016115 0)
(-0.166187 0.0163206 0)
(-0.190928 0.0155637 0)
(-0.212824 0.0142055 0)
(-0.231075 0.0124557 0)
(-0.245263 0.0104841 0)
(-0.255123 0.00839936 0)
(-0.260599 0.00635594 0)
(-0.261726 0.00421681 0)
(-0.258624 0.00192611 0)
(-0.251467 -0.000332442 0)
(-0.240364 -0.00251811 0)
(-0.22561 -0.00454253 0)
(-0.207478 -0.00640558 0)
(-0.186375 -0.00802743 0)
(-0.162651 -0.00943701 0)
(-0.136834 -0.0105334 0)
(-0.10931 -0.0113548 0)
(-0.0806933 -0.0117893 0)
(-0.0514579 -0.0119447 0)
(-0.0221063 -0.0118008 0)
(0.00693279 -0.011428 0)
(0.0352173 -0.0108278 0)
(0.0623287 -0.010077 0)
(0.0879547 -0.00918463 0)
(0.111753 -0.00819043 0)
(0.133574 -0.00712022 0)
(0.153189 -0.00600516 0)
(0.170579 -0.0048749 0)
(0.185609 -0.00375344 0)
(0.198364 -0.00265852 0)
(0.208774 -0.00160968 0)
(0.217 -0.000634272 0)
(0.223005 0.000294143 0)
(0.22699 0.0011383 0)
(0.228876 0.00185335 0)
(0.229005 0.00257999 0)
(0.227284 0.00336711 0)
(0.224065 0.00395306 0)
(0.219274 0.00433623 0)
(0.213287 0.0045846 0)
(0.205982 0.00471902 0)
(0.19789 0.0046824 0)
(0.188838 0.0045013 0)
(0.179569 0.00414229 0)
(0.169714 0.00369458 0)
(0.160288 0.00309864 0)
(0.150506 0.00248328 0)
(0.141892 0.00173133 0)
(0.13286 0.00104387 0)
(0.125958 0.000235017 0)
(0.117914 -0.0002755 0)
(0.113691 -0.000834507 0)
(0.10507 5.39902e-05 0)
(0.000593122 -0.00134182 0)
(0.00298677 -0.00262529 0)
(0.00541666 -0.00149355 0)
(0.00547829 0.000825734 0)
(0.00324862 0.00260381 0)
(-0.000417996 0.00311607 0)
(-0.00429166 0.00268485 0)
(-0.00764826 0.00189099 0)
(-0.01037 0.00125489 0)
(-0.0127086 0.00101396 0)
(-0.0150126 0.00111351 0)
(-0.0175042 0.00136779 0)
(-0.0202449 0.00161469 0)
(-0.0231998 0.0017763 0)
(-0.0263045 0.00184506 0)
(-0.0295039 0.00184328 0)
(-0.0327639 0.00179189 0)
(-0.0360697 0.00170129 0)
(-0.0394239 0.00157433 0)
(-0.042851 0.00141138 0)
(-0.0464078 0.00121901 0)
(-0.0502006 0.0010161 0)
(-0.0544043 0.000838762 0)
(-0.0592821 0.000749538 0)
(-0.065203 0.000852867 0)
(-0.0726613 0.0013122 0)
(-0.0822064 0.00238679 0)
(-0.0943562 0.00439099 0)
(-0.109497 0.0075823 0)
(-0.127699 0.0120766 0)
(-0.148642 0.0177343 0)
(-0.171636 0.0240378 0)
(-0.19576 0.0301257 0)
(-0.219952 0.0351047 0)
(-0.243135 0.0382959 0)
(-0.264312 0.0393503 0)
(-0.282635 0.0382612 0)
(-0.297446 0.0353146 0)
(-0.308282 0.0309348 0)
(-0.314885 0.0255768 0)
(-0.31714 0.0195981 0)
(-0.315017 0.0132778 0)
(-0.308534 0.00673539 0)
(-0.298086 8.65609e-05 0)
(-0.283744 -0.00640903 0)
(-0.265493 -0.012796 0)
(-0.24358 -0.0188519 0)
(-0.218069 -0.0245872 0)
(-0.189478 -0.0297637 0)
(-0.15786 -0.0344651 0)
(-0.123885 -0.038382 0)
(-0.0876897 -0.0417546 0)
(-0.0499578 -0.0442896 0)
(-0.0109883 -0.0461956 0)
(0.0287939 -0.0471989 0)
(0.068708 -0.0475774 0)
(0.108386 -0.0471578 0)
(0.147245 -0.046145 0)
(0.185181 -0.0444695 0)
(0.221467 -0.0423034 0)
(0.256248 -0.039683 0)
(0.288807 -0.036733 0)
(0.319444 -0.0335205 0)
(0.347496 -0.0301361 0)
(0.373419 -0.0266564 0)
(0.396601 -0.0231332 0)
(0.417596 -0.0196399 0)
(0.435841 -0.0161902 0)
(0.451966 -0.0128518 0)
(0.465354 -0.00960013 0)
(0.476827 -0.00650169 0)
(0.485513 -0.00350172 0)
(0.492541 -0.000667426 0)
(0.496841 0.00205362 0)
(0.499497 0.00466345 0)
(0.499375 0.00720246 0)
(0.497996 0.00949076 0)
(0.493677 0.0116025 0)
(0.488446 0.0133542 0)
(0.479933 0.0148515 0)
(0.471249 0.0159175 0)
(0.458761 0.0167009 0)
(0.447392 0.0170209 0)
(0.431239 0.0170754 0)
(0.418458 0.0166839 0)
(0.398941 0.0160669 0)
(0.386665 0.0151291 0)
(0.36344 0.0138967 0)
(0.354712 0.0128191 0)
(0.325803 0.0112543 0)
(0.000960638 -0.00303502 0)
(0.0033239 -0.00497328 0)
(0.00482178 -0.00216061 0)
(0.00364545 0.00257349 0)
(-1.06646e-05 0.00634564 0)
(-0.00510538 0.00783676 0)
(-0.0104784 0.00737635 0)
(-0.0155929 0.00605922 0)
(-0.0203981 0.00495169 0)
(-0.025102 0.00454821 0)
(-0.0299233 0.00476412 0)
(-0.0349571 0.00526633 0)
(-0.0402146 0.00577143 0)
(-0.0456825 0.00615178 0)
(-0.0513509 0.00640153 0)
(-0.0572204 0.00656267 0)
(-0.0633021 0.00667718 0)
(-0.069617 0.00677694 0)
(-0.0761999 0.00689559 0)
(-0.0831003 0.00708451 0)
(-0.0903802 0.00741638 0)
(-0.0981267 0.00798952 0)
(-0.10645 0.00892758 0)
(-0.115474 0.0103633 0)
(-0.125322 0.0124194 0)
(-0.136084 0.015207 0)
(-0.147818 0.0188106 0)
(-0.160448 0.0232059 0)
(-0.173745 0.0283001 0)
(-0.187316 0.0338781 0)
(-0.200628 0.0395834 0)
(-0.21306 0.0448928 0)
(-0.223892 0.0491528 0)
(-0.232454 0.0516782 0)
(-0.238259 0.0519745 0)
(-0.24102 0.049839 0)
(-0.240565 0.0453459 0)
(-0.236887 0.0388707 0)
(-0.230068 0.0308964 0)
(-0.220121 0.0218182 0)
(-0.207173 0.0120439 0)
(-0.191486 0.00186048 0)
(-0.173123 -0.00845201 0)
(-0.152057 -0.0188837 0)
(-0.128176 -0.029029 0)
(-0.101581 -0.0388034 0)
(-0.0726709 -0.0479629 0)
(-0.0412301 -0.056698 0)
(-0.00778629 -0.0644561 0)
(0.0278838 -0.0715342 0)
(0.0652595 -0.0773426 0)
(0.10374 -0.0823029 0)
(0.143343 -0.0858749 0)
(0.182993 -0.0884382 0)
(0.223143 -0.089546 0)
(0.262455 -0.0897054 0)
(0.301685 -0.088619 0)
(0.33913 -0.0866051 0)
(0.375949 -0.0835585 0)
(0.410307 -0.0797455 0)
(0.443638 -0.0751892 0)
(0.474067 -0.0701282 0)
(0.503255 -0.0646368 0)
(0.5293 -0.0588968 0)
(0.554091 -0.0529958 0)
(0.575638 -0.0470479 0)
(0.59608 -0.0411255 0)
(0.613243 -0.0352962 0)
(0.62958 -0.0295902 0)
(0.642572 -0.0240546 0)
(0.655137 -0.0186689 0)
(0.664172 -0.0134922 0)
(0.673296 -0.00844729 0)
(0.678509 -0.00367253 0)
(0.684469 0.000991786 0)
(0.685924 0.00541421 0)
(0.688768 0.00983973 0)
(0.686201 0.0139245 0)
(0.686098 0.0178917 0)
(0.679344 0.0213241 0)
(0.676546 0.0245694 0)
(0.665382 0.0271642 0)
(0.660307 0.0295735 0)
(0.644468 0.0311439 0)
(0.637926 0.0326323 0)
(0.617144 0.0329752 0)
(0.610516 0.0336116 0)
(0.584327 0.0326365 0)
(0.579831 0.0327498 0)
(0.547489 0.0306321 0)
(0.00071405 -0.00641297 0)
(0.00108993 -0.00779216 0)
(-0.000881317 -0.00234057 0)
(-0.00491096 0.00542955 0)
(-0.0101975 0.0112143 0)
(-0.0163345 0.0135854 0)
(-0.0227865 0.0132516 0)
(-0.0294063 0.0118778 0)
(-0.0362376 0.0108494 0)
(-0.0433011 0.0106662 0)
(-0.0505186 0.0111241 0)
(-0.0577804 0.0118196 0)
(-0.065039 0.0124814 0)
(-0.072297 0.0130254 0)
(-0.0795642 0.0134687 0)
(-0.086837 0.0138514 0)
(-0.0940947 0.0142056 0)
(-0.101301 0.0145568 0)
(-0.108411 0.0149369 0)
(-0.115377 0.0153945 0)
(-0.122153 0.0159933 0)
(-0.128688 0.0168132 0)
(-0.13494 0.0179508 0)
(-0.140876 0.0195169 0)
(-0.146444 0.0216189 0)
(-0.151571 0.0243491 0)
(-0.156157 0.0277337 0)
(-0.160059 0.0317281 0)
(-0.16306 0.0361709 0)
(-0.164854 0.040743 0)
(-0.16506 0.0449885 0)
(-0.163252 0.0483345 0)
(-0.159066 0.0502183 0)
(-0.152335 0.0501069 0)
(-0.143048 0.0476757 0)
(-0.131411 0.0428518 0)
(-0.117511 0.0356688 0)
(-0.101536 0.026617 0)
(-0.0837954 0.0161813 0)
(-0.0642095 0.00477674 0)
(-0.0430479 -0.00720739 0)
(-0.0202396 -0.0196193 0)
(0.00431126 -0.032046 0)
(0.0307276 -0.0443288 0)
(0.0590105 -0.0562458 0)
(0.0892706 -0.0680237 0)
(0.12148 -0.0790537 0)
(0.155446 -0.0897443 0)
(0.191254 -0.0991888 0)
(0.227984 -0.107767 0)
(0.26642 -0.114774 0)
(0.304843 -0.120719 0)
(0.344489 -0.124832 0)
(0.38293 -0.127594 0)
(0.422089 -0.128489 0)
(0.459002 -0.128013 0)
(0.496197 -0.125873 0)
(0.530289 -0.122507 0)
(0.564351 -0.117785 0)
(0.594702 -0.112134 0)
(0.624891 -0.105529 0)
(0.650986 -0.0983845 0)
(0.676996 -0.0906808 0)
(0.69869 -0.0828058 0)
(0.720578 -0.0746897 0)
(0.737997 -0.0666933 0)
(0.756067 -0.0586652 0)
(0.76949 -0.0509402 0)
(0.784172 -0.0432968 0)
(0.79394 -0.036031 0)
(0.805672 -0.0288782 0)
(0.812099 -0.0221149 0)
(0.821246 -0.0154296 0)
(0.824539 -0.00914636 0)
(0.831391 -0.00288271 0)
(0.831641 0.00292656 0)
(0.836459 0.00879048 0)
(0.833407 0.0142739 0)
(0.836056 0.0197908 0)
(0.829437 0.0247138 0)
(0.830159 0.0296147 0)
(0.819796 0.0336753 0)
(0.818845 0.0377782 0)
(0.804394 0.040695 0)
(0.802211 0.0438265 0)
(0.783392 0.0453112 0)
(0.780786 0.0473674 0)
(0.757405 0.0472857 0)
(0.755585 0.0482987 0)
(0.727591 0.046739 0)
(1.88062e-05 -0.00312887 0)
(-0.00305638 -0.00179397 0)
(-0.00949018 0.00464204 0)
(-0.0169645 0.0127986 0)
(-0.0249589 0.0185112 0)
(-0.0326807 0.0206746 0)
(-0.0402478 0.0203896 0)
(-0.0480518 0.0193772 0)
(-0.0561359 0.0187669 0)
(-0.0642294 0.0187958 0)
(-0.0720278 0.0192048 0)
(-0.0793503 0.0196993 0)
(-0.086157 0.0201259 0)
(-0.0924667 0.0204462 0)
(-0.0982956 0.0206652 0)
(-0.103637 0.0207949 0)
(-0.108463 0.0208472 0)
(-0.112731 0.0208374 0)
(-0.116387 0.0207917 0)
(-0.119366 0.0207517 0)
(-0.121595 0.0207779 0)
(-0.122995 0.0209469 0)
(-0.123474 0.0213481 0)
(-0.122936 0.0220859 0)
(-0.121277 0.023262 0)
(-0.118381 0.0249395 0)
(-0.114124 0.0271164 0)
(-0.10837 0.0297061 0)
(-0.100981 0.0325206 0)
(-0.0917789 0.0352337 0)
(-0.0806267 0.0375085 0)
(-0.0673609 0.0387825 0)
(-0.0519202 0.0385385 0)
(-0.0343953 0.0363363 0)
(-0.0150102 0.031993 0)
(0.00580839 0.0253646 0)
(0.0275839 0.0167128 0)
(0.0507145 0.00639407 0)
(0.0747794 -0.0052136 0)
(0.100012 -0.0179188 0)
(0.126258 -0.0312558 0)
(0.15371 -0.0451336 0)
(0.182619 -0.0590635 0)
(0.212894 -0.0731897 0)
(0.244967 -0.0869494 0)
(0.278354 -0.100613 0)
(0.313642 -0.113412 0)
(0.349707 -0.125662 0)
(0.387443 -0.136453 0)
(0.424989 -0.146112 0)
(0.463792 -0.153862 0)
(0.501266 -0.160051 0)
(0.539489 -0.164072 0)
(0.57521 -0.166282 0)
(0.61127 -0.166321 0)
(0.64387 -0.164579 0)
(0.676646 -0.160926 0)
(0.705269 -0.155757 0)
(0.734135 -0.149095 0)
(0.758387 -0.14135 0)
(0.783145 -0.132614 0)
(0.80301 -0.123287 0)
(0.823823 -0.113456 0)
(0.839571 -0.103466 0)
(0.856837 -0.0933638 0)
(0.868892 -0.0834184 0)
(0.883125 -0.07362 0)
(0.891956 -0.0641676 0)
(0.903697 -0.0549797 0)
(0.909748 -0.046211 0)
(0.919474 -0.0377072 0)
(0.923099 -0.0296119 0)
(0.931183 -0.0217132 0)
(0.932578 -0.0141656 0)
(0.939256 -0.00675358 0)
(0.938484 0.000367374 0)
(0.943939 0.00732751 0)
(0.940826 0.0139121 0)
(0.944849 0.0205452 0)
(0.938982 0.0266435 0)
(0.941612 0.0328189 0)
(0.93279 0.0381057 0)
(0.934137 0.0435246 0)
(0.922038 0.0476526 0)
(0.922271 0.0520474 0)
(0.906676 0.0547083 0)
(0.906211 0.0578072 0)
(0.887106 0.0587943 0)
(0.886584 0.0604031 0)
(0.864191 0.0597094 0)
(-0.0032608 -0.00589214 0)
(-0.0141453 0.000217668 0)
(-0.0272971 0.0100309 0)
(-0.0368911 0.0196139 0)
(-0.0447919 0.0257992 0)
(-0.0519047 0.028153 0)
(-0.058848 0.0281314 0)
(-0.0657972 0.0273623 0)
(-0.0724295 0.0267092 0)
(-0.0783464 0.0262923 0)
(-0.0833214 0.0259963 0)
(-0.0872842 0.0257065 0)
(-0.0902704 0.0253651 0)
(-0.092343 0.0249485 0)
(-0.0935586 0.024446 0)
(-0.0939568 0.0238497 0)
(-0.0935624 0.0231546 0)
(-0.0923824 0.02236 0)
(-0.0904066 0.0214761 0)
(-0.0876042 0.0205281 0)
(-0.0839241 0.0195588 0)
(-0.079289 0.018626 0)
(-0.0735951 0.0178143 0)
(-0.0667336 0.0172313 0)
(-0.0585568 0.0169694 0)
(-0.048903 0.0170758 0)
(-0.0376187 0.0175548 0)
(-0.0245451 0.0183233 0)
(-0.00960011 0.0192085 0)
(0.00739076 0.0199352 0)
(0.0264325 0.0201605 0)
(0.0474434 0.0194791 0)
(0.0703441 0.0174813 0)
(0.0950389 0.0137563 0)
(0.121011 0.00818743 0)
(0.148272 0.000455362 0)
(0.176256 -0.00908195 0)
(0.205154 -0.0202932 0)
(0.234837 -0.0327486 0)
(0.265242 -0.04639 0)
(0.29668 -0.0607727 0)
(0.329063 -0.0758707 0)
(0.362808 -0.0911658 0)
(0.397447 -0.106711 0)
(0.433467 -0.121889 0)
(0.469993 -0.13676 0)
(0.507596 -0.150638 0)
(0.544914 -0.163532 0)
(0.582701 -0.174779 0)
(0.619153 -0.184369 0)
(0.655399 -0.191803 0)
(0.689256 -0.197103 0)
(0.722402 -0.200026 0)
(0.7523 -0.200638 0)
(0.781318 -0.198973 0)
(0.80652 -0.19513 0)
(0.831046 -0.189399 0)
(0.851455 -0.181878 0)
(0.871662 -0.173037 0)
(0.887603 -0.162948 0)
(0.903977 -0.152154 0)
(0.916007 -0.14067 0)
(0.929198 -0.12903 0)
(0.937978 -0.117165 0)
(0.948668 -0.105559 0)
(0.954836 -0.0940531 0)
(0.963667 -0.0830571 0)
(0.967788 -0.0723431 0)
(0.975326 -0.0622334 0)
(0.977861 -0.0524491 0)
(0.984557 -0.0432386 0)
(0.985834 -0.0342832 0)
(0.991993 -0.0258022 0)
(0.992163 -0.0174782 0)
(0.997933 -0.00948079 0)
(0.996943 -0.00161814 0)
(1.00223 0.00606412 0)
(0.999944 0.0133964 0)
(1.00473 0.0207506 0)
(1.00067 0.0276668 0)
(1.00462 0.0347221 0)
(0.998434 0.0409635 0)
(1.00145 0.0473362 0)
(0.992857 0.0525031 0)
(0.994867 0.0578257 0)
(0.983652 0.0615683 0)
(0.984724 0.0654315 0)
(0.97093 0.067453 0)
(0.971322 0.0695056 0)
(0.95525 0.0696887 0)
(-0.00261158 0.0172476 0)
(-0.0143711 0.0261768 0)
(-0.0341119 0.0308046 0)
(-0.0482199 0.0341298 0)
(-0.0579336 0.0358684 0)
(-0.0642279 0.0357369 0)
(-0.0682705 0.0344564 0)
(-0.0707342 0.0327871 0)
(-0.0718381 0.0311184 0)
(-0.0716158 0.0295238 0)
(-0.0700919 0.0280017 0)
(-0.0673363 0.0265315 0)
(-0.0634499 0.0250962 0)
(-0.0585345 0.0236768 0)
(-0.0526835 0.022251 0)
(-0.0459706 0.0207927 0)
(-0.038466 0.0192829 0)
(-0.0302161 0.0177006 0)
(-0.0212553 0.0160352 0)
(-0.0115949 0.0142886 0)
(-0.00122901 0.0124756 0)
(0.00988993 0.0106236 0)
(0.0218866 0.00876648 0)
(0.0347902 0.00694321 0)
(0.0487419 0.00522295 0)
(0.0639344 0.00367897 0)
(0.0805362 0.00233525 0)
(0.0987568 0.00111881 0)
(0.118731 -9.94897e-05 0)
(0.140576 -0.0015059 0)
(0.16439 -0.0034302 0)
(0.190164 -0.00618558 0)
(0.217769 -0.0100484 0)
(0.247124 -0.0153732 0)
(0.277824 -0.0222676 0)
(0.309824 -0.0309612 0)
(0.342873 -0.0412857 0)
(0.376715 -0.0532315 0)
(0.4114 -0.0665025 0)
(0.446658 -0.0809535 0)
(0.482702 -0.0961909 0)
(0.519161 -0.112059 0)
(0.556231 -0.128126 0)
(0.59329 -0.144188 0)
(0.630479 -0.159759 0)
(0.666951 -0.174587 0)
(0.702828 -0.188185 0)
(0.737085 -0.200286 0)
(0.769928 -0.210485 0)
(0.800286 -0.218537 0)
(0.828589 -0.224228 0)
(0.853796 -0.227385 0)
(0.876699 -0.228064 0)
(0.896275 -0.22616 0)
(0.913757 -0.22203 0)
(0.928006 -0.21559 0)
(0.940738 -0.20747 0)
(0.950496 -0.19754 0)
(0.959507 -0.186635 0)
(0.96579 -0.174513 0)
(0.972144 -0.162102 0)
(0.975912 -0.149019 0)
(0.980535 -0.136209 0)
(0.982585 -0.123156 0)
(0.986206 -0.110777 0)
(0.987148 -0.0984326 0)
(0.990327 -0.0869853 0)
(0.990614 -0.0757086 0)
(0.993792 -0.065391 0)
(0.993763 -0.0552591 0)
(0.99728 -0.0459971 0)
(0.99716 -0.0368334 0)
(1.00118 -0.0283551 0)
(1.00103 -0.0198878 0)
(1.00556 -0.0118433 0)
(1.00526 -0.00384506 0)
(1.0101 0.00406941 0)
(1.00934 0.0118339 0)
(1.01436 0.019555 0)
(1.01283 0.0270206 0)
(1.01754 0.034569 0)
(1.0147 0.0415347 0)
(1.01875 0.0485218 0)
(1.01435 0.0545799 0)
(1.01751 0.060541 0)
(1.01133 0.0652612 0)
(1.0134 0.0696634 0)
(1.00548 0.0726625 0)
(1.00647 0.0750366 0)
(0.997077 0.0761014 0)
(-0.0230566 0.00336272 0)
(-0.0490528 0.025512 0)
(-0.058045 0.0351702 0)
(-0.061781 0.0383167 0)
(-0.0604479 0.0380512 0)
(-0.0560645 0.0360654 0)
(-0.0496652 0.0332755 0)
(-0.0417153 0.0302183 0)
(-0.0324857 0.0272157 0)
(-0.0220929 0.0243512 0)
(-0.0106666 0.0216304 0)
(0.00167385 0.0190453 0)
(0.0148154 0.016585 0)
(0.0286736 0.0142282 0)
(0.0431616 0.011949 0)
(0.0582525 0.00971477 0)
(0.0738666 0.00749031 0)
(0.0899861 0.00524506 0)
(0.106578 0.00295294 0)
(0.123635 0.000593673 0)
(0.141159 -0.0018403 0)
(0.15915 -0.00435305 0)
(0.177694 -0.00692615 0)
(0.196785 -0.00954225 0)
(0.216512 -0.0121877 0)
(0.23705 -0.0148629 0)
(0.258544 -0.0175568 0)
(0.281146 -0.0203413 0)
(0.305016 -0.0233015 0)
(0.330285 -0.02662 0)
(0.357076 -0.0304801 0)
(0.385459 -0.0351486 0)
(0.415388 -0.0408187 0)
(0.446798 -0.0477674 0)
(0.479524 -0.0560675 0)
(0.513341 -0.0658587 0)
(0.548087 -0.0770901 0)
(0.583392 -0.0896865 0)
(0.619149 -0.10343 0)
(0.654931 -0.118101 0)
(0.690671 -0.133387 0)
(0.725832 -0.148994 0)
(0.760289 -0.16457 0)
(0.793388 -0.179764 0)
(0.824978 -0.194178 0)
(0.854362 -0.207429 0)
(0.881417 -0.219138 0)
(0.905532 -0.22896 0)
(0.926708 -0.236621 0)
(0.944571 -0.241869 0)
(0.959281 -0.244636 0)
(0.970786 -0.244792 0)
(0.979396 -0.242534 0)
(0.985348 -0.237802 0)
(0.989034 -0.231067 0)
(0.990839 -0.222258 0)
(0.991178 -0.212109 0)
(0.990374 -0.200434 0)
(0.988874 -0.188178 0)
(0.986745 -0.174935 0)
(0.984563 -0.161792 0)
(0.981976 -0.148089 0)
(0.979837 -0.135011 0)
(0.977273 -0.121697 0)
(0.975582 -0.109383 0)
(0.973315 -0.0970275 0)
(0.97233 -0.0858763 0)
(0.970529 -0.0747562 0)
(0.970458 -0.0648771 0)
(0.969281 -0.0550202 0)
(0.97034 -0.0462551 0)
(0.969915 -0.0374403 0)
(0.972162 -0.029456 0)
(0.972491 -0.0213128 0)
(0.975824 -0.0137024 0)
(0.976737 -0.00586425 0)
(0.98094 0.00173483 0)
(0.982023 0.00953849 0)
(0.986758 0.0172924 0)
(0.987745 0.0250971 0)
(0.992456 0.0328331 0)
(0.99274 0.0403172 0)
(0.996974 0.047648 0)
(0.996323 0.0544217 0)
(0.999728 0.060798 0)
(0.997911 0.0663279 0)
(1.00021 0.0711022 0)
(0.997263 0.0749135 0)
(0.998404 0.0775103 0)
(0.994529 0.0792972 0)
(-0.0206792 0.109338 0)
(-0.0233617 0.0721742 0)
(-0.0198688 0.0559482 0)
(-0.00850758 0.0441568 0)
(0.00772532 0.034859 0)
(0.0270826 0.0276945 0)
(0.0480297 0.0219187 0)
(0.0700749 0.0169739 0)
(0.0923326 0.0125616 0)
(0.114738 0.0085453 0)
(0.137211 0.00489476 0)
(0.159678 0.00156795 0)
(0.182077 -0.00149909 0)
(0.204426 -0.00437546 0)
(0.226703 -0.00711687 0)
(0.248958 -0.00977302 0)
(0.271174 -0.0123847 0)
(0.29339 -0.014994 0)
(0.315617 -0.0176338 0)
(0.33788 -0.0203379 0)
(0.360209 -0.0231284 0)
(0.382626 -0.0260246 0)
(0.405191 -0.0290352 0)
(0.427937 -0.0321617 0)
(0.450946 -0.0353939 0)
(0.4743 -0.038754 0)
(0.498119 -0.0422735 0)
(0.522512 -0.0460201 0)
(0.54759 -0.0500754 0)
(0.573458 -0.0545771 0)
(0.600189 -0.0596615 0)
(0.627828 -0.0655181 0)
(0.656355 -0.0722901 0)
(0.685664 -0.080138 0)
(0.715638 -0.0891379 0)
(0.746014 -0.0993377 0)
(0.776564 -0.110703 0)
(0.806895 -0.123124 0)
(0.836728 -0.136411 0)
(0.865586 -0.150311 0)
(0.893184 -0.164529 0)
(0.918969 -0.178724 0)
(0.942661 -0.192554 0)
(0.963733 -0.205629 0)
(0.982008 -0.217598 0)
(0.997063 -0.228084 0)
(1.00888 -0.236794 0)
(1.01726 -0.243432 0)
(1.0224 -0.247838 0)
(1.02442 -0.249859 0)
(1.02364 -0.249527 0)
(1.02057 -0.246836 0)
(1.01551 -0.242036 0)
(1.00928 -0.235187 0)
(1.0019 -0.226736 0)
(0.994444 -0.216702 0)
(0.98647 -0.205717 0)
(0.979211 -0.193626 0)
(0.971751 -0.18125 0)
(0.965432 -0.168148 0)
(0.958983 -0.155343 0)
(0.953773 -0.142062 0)
(0.948379 -0.129547 0)
(0.944119 -0.116749 0)
(0.939689 -0.105091 0)
(0.936268 -0.0932798 0)
(0.932823 -0.0828501 0)
(0.930249 -0.0723033 0)
(0.927931 -0.0631972 0)
(0.926341 -0.0539154 0)
(0.925416 -0.0459238 0)
(0.924965 -0.0376887 0)
(0.925571 -0.0304493 0)
(0.92632 -0.0228218 0)
(0.928377 -0.0158622 0)
(0.930216 -0.00835469 0)
(0.933436 -0.00122355 0)
(0.935979 0.0064207 0)
(0.940127 0.013968 0)
(0.942944 0.0219145 0)
(0.947168 0.0296964 0)
(0.949653 0.0375753 0)
(0.953553 0.0451702 0)
(0.95543 0.0525341 0)
(0.958537 0.059288 0)
(0.959503 0.0654973 0)
(0.961532 0.0706504 0)
(0.961599 0.0751172 0)
(0.96252 0.0779583 0)
(0.961868 0.0802568 0)
(0.069487 0.00810576 0)
(0.0920367 0.00691624 0)
(0.155117 0.00584592 0)
(0.20063 0.00212753 0)
(0.24013 -0.00260635 0)
(0.276527 -0.00724568 0)
(0.310406 -0.0113929 0)
(0.341975 -0.0150592 0)
(0.371553 -0.0183041 0)
(0.399605 -0.0212201 0)
(0.426424 -0.0238849 0)
(0.452199 -0.0263651 0)
(0.477042 -0.0287104 0)
(0.501078 -0.0309663 0)
(0.524403 -0.0331678 0)
(0.547114 -0.0353511 0)
(0.569284 -0.0375471 0)
(0.590976 -0.039788 0)
(0.612252 -0.0421063 0)
(0.633156 -0.0445283 0)
(0.653746 -0.0470801 0)
(0.674059 -0.0497777 0)
(0.694151 -0.0526377 0)
(0.714066 -0.0556696 0)
(0.733864 -0.0588861 0)
(0.753608 -0.0623109 0)
(0.773369 -0.0659797 0)
(0.793223 -0.0699556 0)
(0.813228 -0.0743114 0)
(0.833439 -0.0791535 0)
(0.853871 -0.0845851 0)
(0.874514 -0.0907354 0)
(0.895295 -0.0977058 0)
(0.916079 -0.105589 0)
(0.936682 -0.114427 0)
(0.956825 -0.124215 0)
(0.976208 -0.134891 0)
(0.994475 -0.146315 0)
(1.01129 -0.158297 0)
(1.02627 -0.170572 0)
(1.03911 -0.182856 0)
(1.04943 -0.19481 0)
(1.05706 -0.206105 0)
(1.06175 -0.216387 0)
(1.0635 -0.225372 0)
(1.06227 -0.232771 0)
(1.05832 -0.238403 0)
(1.05185 -0.242091 0)
(1.04332 -0.243795 0)
(1.03316 -0.243467 0)
(1.02189 -0.241204 0)
(1.0101 -0.237065 0)
(0.998096 -0.231287 0)
(0.986566 -0.223988 0)
(0.975317 -0.215501 0)
(0.965215 -0.205876 0)
(0.955354 -0.195519 0)
(0.946963 -0.184324 0)
(0.938363 -0.172832 0)
(0.931372 -0.160708 0)
(0.923604 -0.14872 0)
(0.917548 -0.136248 0)
(0.910195 -0.12439 0)
(0.904686 -0.112191 0)
(0.897613 -0.101053 0)
(0.892625 -0.0896923 0)
(0.886088 -0.0797836 0)
(0.881878 -0.0697234 0)
(0.876371 -0.0612756 0)
(0.873347 -0.0525191 0)
(0.869408 -0.0453085 0)
(0.867877 -0.0376391 0)
(0.865895 -0.0312388 0)
(0.866099 -0.0242073 0)
(0.866145 -0.0179881 0)
(0.868101 -0.0109724 0)
(0.869933 -0.00440316 0)
(0.873176 0.00305383 0)
(0.876629 0.0102236 0)
(0.880782 0.0180507 0)
(0.884796 0.0257357 0)
(0.8891 0.0338448 0)
(0.893143 0.0416657 0)
(0.897134 0.049498 0)
(0.9005 0.0566725 0)
(0.903679 0.0634888 0)
(0.905905 0.0691181 0)
(0.908132 0.0741855 0)
(0.909069 0.077362 0)
(0.910484 0.0801015 0)
(0.775183 -0.0096135 0)
(0.777745 -0.0219137 0)
(0.779657 -0.0288449 0)
(0.782366 -0.0331563 0)
(0.786961 -0.0363526 0)
(0.793413 -0.0390779 0)
(0.801425 -0.0415007 0)
(0.810484 -0.0436271 0)
(0.820305 -0.0454711 0)
(0.830659 -0.0470865 0)
(0.841354 -0.0485507 0)
(0.852252 -0.0499305 0)
(0.863254 -0.0512732 0)
(0.874288 -0.0526086 0)
(0.8853 -0.0539631 0)
(0.896245 -0.0553588 0)
(0.907092 -0.0568229 0)
(0.917809 -0.0583795 0)
(0.92838 -0.0600583 0)
(0.938786 -0.0618822 0)
(0.94902 -0.0638772 0)
(0.959074 -0.0660614 0)
(0.96895 -0.0684546 0)
(0.978653 -0.0710734 0)
(0.988193 -0.0739368 0)
(0.99759 -0.0770712 0)
(1.00686 -0.0805098 0)
(1.01601 -0.0843055 0)
(1.02506 -0.0885169 0)
(1.03401 -0.0932235 0)
(1.04281 -0.0984996 0)
(1.05141 -0.104432 0)
(1.05969 -0.111084 0)
(1.06751 -0.118505 0)
(1.07467 -0.126699 0)
(1.08094 -0.13563 0)
(1.08608 -0.145198 0)
(1.08983 -0.155251 0)
(1.09196 -0.165592 0)
(1.09227 -0.17598 0)
(1.09062 -0.18616 0)
(1.0869 -0.195853 0)
(1.08117 -0.204796 0)
(1.07346 -0.212733 0)
(1.06402 -0.219456 0)
(1.05307 -0.224778 0)
(1.04103 -0.228598 0)
(1.02823 -0.230831 0)
(1.01516 -0.231495 0)
(1.00212 -0.230579 0)
(0.989481 -0.228173 0)
(0.977391 -0.224308 0)
(0.9659 -0.219142 0)
(0.955073 -0.212718 0)
(0.944596 -0.205211 0)
(0.934689 -0.196627 0)
(0.924547 -0.18718 0)
(0.914894 -0.176829 0)
(0.904304 -0.165869 0)
(0.894409 -0.154173 0)
(0.882962 -0.14224 0)
(0.872751 -0.129865 0)
(0.860457 -0.117856 0)
(0.850226 -0.105676 0)
(0.837544 -0.0944049 0)
(0.82789 -0.0831241 0)
(0.815515 -0.0733453 0)
(0.807154 -0.0636698 0)
(0.79611 -0.0557912 0)
(0.789829 -0.0477328 0)
(0.78092 -0.0414977 0)
(0.777081 -0.0346916 0)
(0.770941 -0.0295123 0)
(0.769899 -0.0234117 0)
(0.766921 -0.018471 0)
(0.76869 -0.0123515 0)
(0.76882 -0.00696835 0)
(0.772916 -0.000166609 0)
(0.775731 0.00618016 0)
(0.781815 0.0135546 0)
(0.786488 0.0207584 0)
(0.793722 0.0287699 0)
(0.799187 0.0365405 0)
(0.806759 0.0446603 0)
(0.811863 0.0521811 0)
(0.818985 0.0596045 0)
(0.822761 0.0657742 0)
(0.829003 0.0715793 0)
(0.830827 0.0751876 0)
(0.836191 0.078582 0)
(1.05846 0.00734604 0)
(1.06191 -0.00146465 0)
(1.06304 -0.00922962 0)
(1.06273 -0.0155708 0)
(1.06223 -0.0208882 0)
(1.06231 -0.0255732 0)
(1.06309 -0.0298184 0)
(1.06449 -0.0336553 0)
(1.06626 -0.0371051 0)
(1.06825 -0.0402011 0)
(1.07039 -0.0429919 0)
(1.07261 -0.0455294 0)
(1.0749 -0.0478674 0)
(1.07721 -0.050052 0)
(1.07952 -0.0521294 0)
(1.08181 -0.0541378 0)
(1.08404 -0.0561198 0)
(1.08618 -0.0581107 0)
(1.08822 -0.0601508 0)
(1.09014 -0.0622733 0)
(1.09191 -0.0645138 0)
(1.09352 -0.0669017 0)
(1.09496 -0.0694671 0)
(1.09623 -0.0722385 0)
(1.09733 -0.0752447 0)
(1.09826 -0.0785201 0)
(1.09902 -0.0821014 0)
(1.09961 -0.0860361 0)
(1.10003 -0.0903723 0)
(1.10026 -0.0951717 0)
(1.10026 -0.100486 0)
(1.09998 -0.106374 0)
(1.09935 -0.112868 0)
(1.09825 -0.11999 0)
(1.09656 -0.127713 0)
(1.09416 -0.135984 0)
(1.09091 -0.144692 0)
(1.08671 -0.153694 0)
(1.08148 -0.162816 0)
(1.07519 -0.171854 0)
(1.06786 -0.180615 0)
(1.05953 -0.18888 0)
(1.05036 -0.196473 0)
(1.04045 -0.203205 0)
(1.03005 -0.208936 0)
(1.01926 -0.213524 0)
(1.00829 -0.216888 0)
(0.997171 -0.218938 0)
(0.986031 -0.219638 0)
(0.974787 -0.218941 0)
(0.963393 -0.216875 0)
(0.951616 -0.213433 0)
(0.939277 -0.208667 0)
(0.926151 -0.202519 0)
(0.912059 -0.195053 0)
(0.896931 -0.186283 0)
(0.880579 -0.176407 0)
(0.863295 -0.165494 0)
(0.844737 -0.153771 0)
(0.825831 -0.141286 0)
(0.80565 -0.128456 0)
(0.78601 -0.11547 0)
(0.765023 -0.102889 0)
(0.745992 -0.0906224 0)
(0.725407 -0.0792582 0)
(0.70819 -0.068443 0)
(0.688676 -0.0590736 0)
(0.674257 -0.0502755 0)
(0.657036 -0.0433078 0)
(0.646613 -0.0366662 0)
(0.632474 -0.03197 0)
(0.626427 -0.0268936 0)
(0.616033 -0.0236511 0)
(0.61464 -0.0192422 0)
(0.60865 -0.0164542 0)
(0.611737 -0.011927 0)
(0.610304 -0.00866745 0)
(0.617192 -0.00326456 0)
(0.619866 0.00133277 0)
(0.629751 0.00790573 0)
(0.635693 0.0140331 0)
(0.647794 0.0216592 0)
(0.655613 0.0288861 0)
(0.668992 0.0370405 0)
(0.676902 0.0446078 0)
(0.690507 0.0525622 0)
(0.696794 0.0592198 0)
(0.709963 0.0659231 0)
(0.713274 0.0700327 0)
(0.725796 0.074414 0)
(1.08258 -0.00457461 0)
(1.08871 -0.0125983 0)
(1.09311 -0.0204755 0)
(1.0958 -0.0272048 0)
(1.09727 -0.0326049 0)
(1.09816 -0.0369803 0)
(1.09887 -0.0406804 0)
(1.09956 -0.0439404 0)
(1.10025 -0.046857 0)
(1.10088 -0.0494614 0)
(1.10144 -0.0517746 0)
(1.10188 -0.0538275 0)
(1.10223 -0.0556664 0)
(1.10247 -0.0573402 0)
(1.10262 -0.0589029 0)
(1.10266 -0.0603991 0)
(1.1026 -0.0618774 0)
(1.1024 -0.0633743 0)
(1.10208 -0.0649334 0)
(1.1016 -0.0665869 0)
(1.10096 -0.0683745 0)
(1.10015 -0.0703252 0)
(1.09918 -0.0724752 0)
(1.09802 -0.0748525 0)
(1.0967 -0.0774919 0)
(1.09521 -0.0804244 0)
(1.09357 -0.0836877 0)
(1.09178 -0.0873199 0)
(1.08984 -0.0913631 0)
(1.08775 -0.0958609 0)
(1.08549 -0.100852 0)
(1.08303 -0.106372 0)
(1.08034 -0.112434 0)
(1.07736 -0.119043 0)
(1.07403 -0.126157 0)
(1.07029 -0.13372 0)
(1.06608 -0.141625 0)
(1.06135 -0.149745 0)
(1.05603 -0.157927 0)
(1.05011 -0.165993 0)
(1.04354 -0.173779 0)
(1.03628 -0.181089 0)
(1.02832 -0.187785 0)
(1.01959 -0.193697 0)
(1.01006 -0.198728 0)
(0.999579 -0.202737 0)
(0.988093 -0.205626 0)
(0.975352 -0.207216 0)