/*--------------------------------*- C++ -*----------------------------------*\
| =========                 |                                                 |
| \\      /  F ield         | OpenFOAM: The Open Source CFD Toolbox           |
|  \\    /   O peration     | Version:  2306                                  |
|   \\  /    A nd           | Website:  www.openfoam.com                      |
|    \\/     M anipulation  |                                                 |
\*---------------------------------------------------------------------------*/
FoamFile
{
    version     2.0;
    format      ascii;
    arch        "LSB;label=32;scalar=64";
    class       volVectorField;
    location    "0.35";
    object      U;
}
// * * * * * * * * * * * * * * * * * * * * * * * * * * * * * * * * * * * * * //

dimensions      [0 1 -1 0 0 0 0];

internalField   nonuniform List<vector> 
47500
(
(0.708058 0.141126 0)
(0.605107 0.126852 0)
(0.442238 0.0756733 0)
(0.323205 0.0428889 0)
(0.252628 0.0249084 0)
(0.207936 0.0151468 0)
(0.177257 0.00977786 0)
(0.155189 0.00671787 0)
(0.138693 0.00487348 0)
(0.125941 0.00368953 0)
(0.115824 0.00288363 0)
(0.107638 0.0023073 0)
(0.100917 0.00187859 0)
(0.0953326 0.00154966 0)
(0.090652 0.00129105 0)
(0.0867015 0.00108367 0)
(0.0833496 0.000914648 0)
(0.0804949 0.000774991 0)
(0.0780577 0.000658222 0)
(0.0759744 0.00055957 0)
(0.074194 0.000475449 0)
(0.0726746 0.000403109 0)
(0.071382 0.000340413 0)
(0.0702879 0.000285667 0)
(0.0693685 0.000237512 0)
(0.0686042 0.000194842 0)
(0.0679784 0.00015674 0)
(0.0674774 0.000122438 0)
(0.0670898 9.12781e-05 0)
(0.0668061 6.26891e-05 0)
(0.0666188 3.61636e-05 0)
(0.0665221 1.12388e-05 0)
(0.0665117 -1.25229e-05 0)
(0.0665849 -3.55532e-05 0)
(0.0667407 -5.82919e-05 0)
(0.0669801 -8.12122e-05 0)
(0.067306 -0.000104859 0)
(0.0677242 -0.000129904 0)
(0.0682442 -0.000157247 0)
(0.0688802 -0.000188228 0)
(0.0696544 -0.000225113 0)
(0.0706013 -0.000272359 0)
(0.0717773 -0.000339994 0)
(0.0732823 -0.000452976 0)
(0.0753055 -0.000676986 0)
(0.0782228 -0.00118857 0)
(0.082904 -0.00247111 0)
(0.091781 -0.0059207 0)
(0.110523 -0.0158052 0)
(0.14545 -0.0449265 0)
(0.990012 0.273751 0)
(0.981277 0.298007 0)
(0.863903 0.21609 0)
(0.734143 0.146999 0)
(0.62832 0.100193 0)
(0.545478 0.0697709 0)
(0.480661 0.0501599 0)
(0.429788 0.0373103 0)
(0.389456 0.0286158 0)
(0.35704 0.0225129 0)
(0.330633 0.0180771 0)
(0.308865 0.0147521 0)
(0.290736 0.0121934 0)
(0.275511 0.0101802 0)
(0.262637 0.00856642 0)
(0.25169 0.00725224 0)
(0.242344 0.00616741 0)
(0.23434 0.00526128 0)
(0.227473 0.00449654 0)
(0.221577 0.00384513 0)
(0.216517 0.0032856 0)
(0.212182 0.00280127 0)
(0.20848 0.00237898 0)
(0.205334 0.00200818 0)
(0.202681 0.00168032 0)
(0.200465 0.00138833 0)
(0.198642 0.00112633 0)
(0.197175 0.000889278 0)
(0.196031 0.000672824 0)
(0.195185 0.000473102 0)
(0.194617 0.000286597 0)
(0.194311 0.000109995 0)
(0.194255 -5.99524e-05 0)
(0.194444 -0.000226597 0)
(0.194877 -0.000393583 0)
(0.195558 -0.000565124 0)
(0.196499 -0.00074641 0)
(0.197722 -0.000944241 0)
(0.19926 -0.00116811 0)
(0.201163 -0.0014321 0)
(0.20351 -0.00175849 0)
(0.206416 -0.0021849 0)
(0.210067 -0.00277934 0)
(0.214755 -0.00367291 0)
(0.22096 -0.00513291 0)
(0.229465 -0.00772347 0)
(0.241587 -0.0126558 0)
(0.259628 -0.022597 0)
(0.286504 -0.0434397 0)
(0.320558 -0.0855862 0)
(1.02873 0.230537 0)
(1.06518 0.337272 0)
(1.02857 0.307935 0)
(0.952112 0.249931 0)
(0.866775 0.194722 0)
(0.785962 0.15009 0)
(0.714442 0.116323 0)
(0.653203 0.0913157 0)
(0.601488 0.0727583 0)
(0.557969 0.0588155 0)
(0.521296 0.0481659 0)
(0.490283 0.0398883 0)
(0.463946 0.0333444 0)
(0.441483 0.0280897 0)
(0.422251 0.0238103 0)
(0.405734 0.0202809 0)
(0.391512 0.0173372 0)
(0.379246 0.0148572 0)
(0.368658 0.0127489 0)
(0.359519 0.0109417 0)
(0.351639 0.00938109 0)
(0.344859 0.00802374 0)
(0.339045 0.00683522 0)
(0.334087 0.00578765 0)
(0.32989 0.00485815 0)
(0.326373 0.00402771 0)
(0.323469 0.00328025 0)
(0.321121 0.00260201 0)
(0.319283 0.00198089 0)
(0.317915 0.0014061 0)
(0.316987 0.000867647 0)
(0.316474 0.000356025 0)
(0.316362 -0.000138249 0)
(0.31664 -0.000625095 0)
(0.31731 -0.00111549 0)
(0.31838 -0.00162231 0)
(0.31987 -0.00216156 0)
(0.321815 -0.00275431 0)
(0.324269 -0.00342971 0)
(0.327311 -0.00423019 0)
(0.331059 -0.00522027 0)
(0.335683 -0.00650229 0)
(0.341431 -0.00824489 0)
(0.348666 -0.0107355 0)
(0.357911 -0.0144766 0)
(0.369881 -0.0203551 0)
(0.385491 -0.0299137 0)
(0.405713 -0.0457562 0)
(0.430597 -0.0719554 0)
(0.456289 -0.112703 0)
(1.02485 0.170713 0)
(1.0701 0.31458 0)
(1.08052 0.338862 0)
(1.05259 0.31134 0)
(1.00162 0.267048 0)
(0.941437 0.222038 0)
(0.880406 0.18251 0)
(0.822878 0.149852 0)
(0.770723 0.123532 0)
(0.724427 0.102474 0)
(0.68379 0.0855981 0)
(0.648319 0.0719858 0)
(0.617436 0.0609106 0)
(0.590569 0.0518136 0)
(0.567195 0.0442702 0)
(0.546855 0.0379573 0)
(0.529149 0.0326286 0)
(0.513738 0.0280944 0)
(0.500332 0.0242072 0)
(0.488683 0.0208515 0)
(0.478579 0.0179357 0)
(0.469842 0.0153861 0)
(0.462316 0.0131431 0)
(0.455872 0.011158 0)
(0.450395 0.00939007 0)
(0.44579 0.00780525 0)
(0.441975 0.00637445 0)
(0.438879 0.00507243 0)
(0.436446 0.00387692 0)
(0.434628 0.00276775 0)
(0.433385 0.00172617 0)
(0.432689 0.000734088 0)
(0.43252 -0.000226639 0)
(0.432868 -0.00117514 0)
(0.433733 -0.00213266 0)
(0.435127 -0.00312411 0)
(0.437076 -0.00418027 0)
(0.439622 -0.00534114 0)
(0.44283 -0.00666104 0)
(0.446794 -0.00821656 0)
(0.451644 -0.0101195 0)
(0.45756 -0.0125376 0)
(0.464785 -0.0157283 0)
(0.473639 -0.0200922 0)
(0.48452 -0.0262559 0)
(0.497865 -0.035186 0)
(0.514035 -0.0483106 0)
(0.533025 -0.067566 0)
(0.553723 -0.0951176 0)
(0.572718 -0.131841 0)
(1.01676 0.128188 0)
(1.05701 0.275119 0)
(1.08731 0.331706 0)
(1.09071 0.333617 0)
(1.07009 0.308318 0)
(1.03427 0.272656 0)
(0.990737 0.235655 0)
(0.94469 0.201448 0)
(0.899384 0.171491 0)
(0.856631 0.145944 0)
(0.817295 0.124421 0)
(0.78167 0.106359 0)
(0.749726 0.0911931 0)
(0.721271 0.078415 0)
(0.696032 0.0675977 0)
(0.673717 0.0583903 0)
(0.654034 0.0505082 0)
(0.636712 0.0437219 0)
(0.6215 0.037846 0)
(0.608176 0.0327304 0)
(0.59654 0.0282528 0)
(0.586417 0.0243129 0)
(0.577653 0.0208278 0)
(0.570113 0.0177283 0)
(0.56368 0.014956 0)
(0.558251 0.0124614 0)
(0.553738 0.0102014 0)
(0.550067 0.00813837 0)
(0.547173 0.00623876 0)
(0.545003 0.00447182 0)
(0.543515 0.00280869 0)
(0.542677 0.00122136 0)
(0.542466 -0.000318449 0)
(0.542871 -0.00184062 0)
(0.543892 -0.00337826 0)
(0.545542 -0.00496995 0)
(0.547846 -0.00666275 0)
(0.550851 -0.00851665 0)
(0.554621 -0.010611 0)
(0.559247 -0.0130538 0)
(0.564851 -0.0159964 0)
(0.571586 -0.0196536 0)
(0.579647 -0.0243345 0)
(0.589254 -0.0304834 0)
(0.600629 -0.0387317 0)
(0.613928 -0.0499471 0)
(0.6291 -0.0652401 0)
(0.645651 -0.0858458 0)
(0.662257 -0.112715 0)
(0.676457 -0.145485 0)
(1.01072 0.0991316 0)
(1.04301 0.235169 0)
(1.0786 0.30702 0)
(1.09883 0.330721 0)
(1.09974 0.324345 0)
(1.08498 0.301815 0)
(1.05947 0.272327 0)
(1.02764 0.241309 0)
(0.992877 0.211622 0)
(0.957575 0.184561 0)
(0.923253 0.160545 0)
(0.890804 0.139537 0)
(0.8607 0.121293 0)
(0.833134 0.105493 0)
(0.808128 0.0918119 0)
(0.785603 0.0799456 0)
(0.765425 0.0696262 0)
(0.747434 0.0606228 0)
(0.73146 0.0527387 0)
(0.717338 0.0458083 0)
(0.704906 0.0396917 0)
(0.694017 0.0342706 0)
(0.684534 0.0294451 0)
(0.676335 0.0251296 0)
(0.66931 0.021251 0)
(0.66336 0.0177456 0)
(0.658399 0.0145576 0)
(0.654354 0.0116375 0)
(0.65116 0.0089405 0)
(0.648763 0.00642507 0)
(0.64712 0.00405201 0)
(0.646198 0.00178293 0)
(0.645974 -0.000421057 0)
(0.646435 -0.00260105 0)
(0.64758 -0.00480237 0)
(0.649419 -0.00707724 0)
(0.651979 -0.00948836 0)
(0.655298 -0.0121138 0)
(0.659433 -0.015054 0)
(0.664462 -0.018441 0)
(0.67048 -0.0224516 0)
(0.677599 -0.0273247 0)
(0.685943 -0.0333839 0)
(0.695625 -0.0410617 0)
(0.706711 -0.0509223 0)
(0.719147 -0.0636632 0)
(0.732653 -0.080064 0)
(0.746576 -0.100827 0)
(0.759739 -0.126239 0)
(0.770484 -0.155583 0)
(1.00696 0.0787059 0)
(1.03212 0.199737 0)
(1.0665 0.27624 0)
(1.09406 0.313697 0)
(1.10825 0.322644 0)
(1.10913 0.313166 0)
(1.09907 0.293158 0)
(1.08101 0.268128 0)
(1.0578 0.241581 0)
(1.03174 0.215571 0)
(1.00457 0.191181 0)
(0.977508 0.168896 0)
(0.951364 0.148846 0)
(0.926636 0.130972 0)
(0.903607 0.115115 0)
(0.882408 0.101081 0)
(0.863073 0.0886671 0)
(0.845573 0.0776778 0)
(0.829836 0.067935 0)
(0.815773 0.059279 0)
(0.803281 0.0515688 0)
(0.792254 0.0446806 0)
(0.782589 0.038506 0)
(0.774187 0.0329501 0)
(0.766956 0.0279294 0)
(0.76081 0.02337 0)
(0.755674 0.0192058 0)
(0.751479 0.0153771 0)
(0.748166 0.0118292 0)
(0.745685 0.00851089 0)
(0.743995 0.0053731 0)
(0.743064 0.00236759 0)
(0.742869 -0.000554689 0)
(0.743396 -0.00344548 0)
(0.744644 -0.00636146 0)
(0.746619 -0.00936714 0)
(0.749341 -0.0125386 0)
(0.752842 -0.0159682 0)
(0.757165 -0.0197715 0)
(0.762365 -0.0240949 0)
(0.768505 -0.0291266 0)
(0.775651 -0.0351091 0)
(0.783857 -0.0423521 0)
(0.793145 -0.0512437 0)
(0.803465 -0.0622507 0)
(0.814639 -0.0758962 0)
(0.826293 -0.0926889 0)
(0.837783 -0.112981 0)
(0.848169 -0.136733 0)
(0.856348 -0.163208 0)
(1.00471 0.0639286 0)
(1.02437 0.169811 0)
(1.05518 0.244955 0)
(1.08471 0.289744 0)
(1.1061 0.309617 0)
(1.11748 0.311212 0)
(1.11927 0.300615 0)
(1.11301 0.282687 0)
(1.10065 0.260961 0)
(1.08407 0.237825 0)
(1.06488 0.214791 0)
(1.04438 0.192748 0)
(1.02352 0.172166 0)
(1.00298 0.15325 0)
(0.98323 0.136038 0)
(0.964577 0.120476 0)
(0.947199 0.106459 0)
(0.93119 0.0938574 0)
(0.916581 0.0825363 0)
(0.903363 0.0723623 0)
(0.8915 0.0632094 0)
(0.880937 0.054961 0)
(0.871612 0.0475108 0)
(0.863459 0.0407622 0)
(0.85641 0.0346276 0)
(0.8504 0.0290274 0)
(0.845368 0.023889 0)
(0.841258 0.0191454 0)
(0.838021 0.014734 0)
(0.835612 0.0105958 0)
(0.833995 0.00667334 0)
(0.833141 0.00290982 0)
(0.83303 -0.000752697 0)
(0.833648 -0.00437519 0)
(0.83499 -0.00802397 0)
(0.837061 -0.0117735 0)
(0.839873 -0.0157099 0)
(0.843447 -0.0199355 0)
(0.847809 -0.0245741 0)
(0.852992 -0.0297778 0)
(0.859027 -0.0357341 0)
(0.865935 -0.0426737 0)
(0.873713 -0.0508761 0)
(0.882317 -0.0606702 0)
(0.891623 -0.0724232 0)
(0.901395 -0.0865077 0)
(0.911244 -0.103235 0)
(0.920603 -0.122747 0)
(0.928753 -0.144865 0)
(0.934951 -0.16894 0)
(1.00335 0.0528702 0)
(1.01892 0.144905 0)
(1.04573 0.215619 0)
(1.0745 0.263236 0)
(1.09913 0.290071 0)
(1.11694 0.300132 0)
(1.12715 0.297752 0)
(1.13018 0.286846 0)
(1.12712 0.27059 0)
(1.11929 0.251373 0)
(1.10799 0.230889 0)
(1.09438 0.210276 0)
(1.07942 0.190258 0)
(1.06384 0.171263 0)
(1.04823 0.153518 0)
(1.03299 0.137112 0)
(1.01842 0.122054 0)
(1.0047 0.108295 0)
(0.991955 0.0957613 0)
(0.980256 0.0843603 0)
(0.969629 0.0739951 0)
(0.960073 0.0645679 0)
(0.95157 0.0559837 0)
(0.944089 0.0481522 0)
(0.937593 0.0409882 0)
(0.93204 0.0344116 0)
(0.927389 0.0283474 0)
(0.923599 0.0227248 0)
(0.920633 0.0174764 0)
(0.918455 0.0125373 0)
(0.917038 0.00784402 0)
(0.916358 0.00333306 0)
(0.916395 -0.00106053 0)
(0.917139 -0.00540498 0)
(0.918583 -0.0097739 0)
(0.920727 -0.0142489 0)
(0.923576 -0.0189226 0)
(0.927141 -0.0239026 0)
(0.931432 -0.0293153 0)
(0.93646 -0.0353107 0)
(0.942227 -0.0420673 0)
(0.948719 -0.0497948 0)
(0.955892 -0.0587351 0)
(0.963657 -0.0691564 0)
(0.971852 -0.0813369 0)
(0.980226 -0.0955317 0)
(0.988415 -0.111918 0)
(0.995945 -0.130519 0)
(1.00227 -0.151111 0)
(1.00689 -0.173157 0)
(1.00249 0.0443074 0)
(1.01505 0.124157 0)
(1.03815 0.189091 0)
(1.06495 0.236617 0)
(1.09042 0.26728 0)
(1.11174 0.283264 0)
(1.12753 0.287449 0)
(1.13744 0.282782 0)
(1.14186 0.271905 0)
(1.14155 0.256991 0)
(1.13745 0.239722 0)
(1.13048 0.221338 0)
(1.12148 0.202715 0)
(1.11117 0.184441 0)
(1.10014 0.166892 0)
(1.08884 0.150292 0)
(1.07764 0.134755 0)
(1.06679 0.120319 0)
(1.05648 0.106978 0)
(1.04683 0.0946885 0)
(1.03794 0.0833928 0)
(1.02986 0.0730201 0)
(1.02259 0.0634947 0)
(1.01616 0.0547392 0)
(1.01056 0.0466765 0)
(1.00576 0.0392312 0)
(1.00175 0.0323302 0)
(0.998498 0.0259022 0)
(0.995991 0.0198783 0)
(0.994203 0.0141905 0)
(0.993114 0.00877161 0)
(0.992704 0.00355361 0)
(0.992962 -0.00153318 0)
(0.993876 -0.00656187 0)
(0.99544 -0.0116109 0)
(0.997651 -0.0167659 0)
(1.00051 -0.0221228 0)
(1.00401 -0.0277901 0)
(1.00816 -0.0338921 0)
(1.01294 -0.0405716 0)
(1.01833 -0.0479925 0)
(1.0243 -0.0563396 0)
(1.03078 -0.0658159 0)
(1.03765 -0.0766342 0)
(1.04473 -0.0889997 0)
(1.05178 -0.103081 0)
(1.05848 -0.118969 0)
(1.06445 -0.136623 0)
(1.06928 -0.155821 0)
(1.07259 -0.176125 0)
(1.00193 0.0374795 0)
(1.01223 0.106746 0)
(1.03212 0.165479 0)
(1.05656 0.211134 0)
(1.08152 0.243325 0)
(1.10441 0.263053 0)
(1.1236 0.272101 0)
(1.13833 0.272566 0)
(1.14845 0.266518 0)
(1.15429 0.255809 0)
(1.1564 0.241981 0)
(1.15545 0.22626 0)
(1.15211 0.209577 0)
(1.14698 0.192614 0)
(1.14063 0.175852 0)
(1.13351 0.159616 0)
(1.12599 0.144112 0)
(1.11837 0.12946 0)
(1.11087 0.115716 0)
(1.10367 0.102893 0)
(1.09691 0.0909727 0)
(1.09065 0.0799181 0)
(1.08497 0.0696773 0)
(1.07991 0.0601911 0)
(1.07548 0.0513951 0)
(1.07169 0.0432229 0)
(1.06855 0.0356068 0)
(1.06604 0.0284788 0)
(1.06417 0.0217711 0)
(1.06292 0.0154156 0)
(1.06228 0.00934362 0)
(1.06224 0.00348532 0)
(1.06279 -0.00223147 0)
(1.06392 -0.00788236 0)
(1.06563 -0.0135479 0)
(1.06792 -0.0193154 0)
(1.07077 -0.0252805 0)
(1.07418 -0.0315494 0)
(1.07814 -0.0382409 0)
(1.08262 -0.0454873 0)
(1.08759 -0.0534352 0)
(1.09299 -0.0622435 0)
(1.09874 -0.0720794 0)
(1.10471 -0.0831083 0)
(1.11073 -0.0954784 0)
(1.11657 -0.109297 0)
(1.12197 -0.124601 0)
(1.1266 -0.14132 0)
(1.13016 -0.15925 0)
(1.13237 -0.178039 0)
(1.00154 0.031903 0)
(1.01014 0.0919925 0)
(1.02733 0.144581 0)
(1.04939 0.18734 0)
(1.07314 0.219452 0)
(1.09635 0.241189 0)
(1.1174 0.253557 0)
(1.13529 0.257968 0)
(1.14958 0.25597 0)
(1.16022 0.249061 0)
(1.16747 0.238577 0)
(1.17173 0.225649 0)
(1.17349 0.211193 0)
(1.17322 0.195921 0)
(1.1714 0.180372 0)
(1.16844 0.16494 0)
(1.1647 0.149901 0)
(1.16047 0.135439 0)
(1.15601 0.121669 0)
(1.15151 0.108654 0)
(1.14712 0.0964172 0)
(1.14296 0.0849539 0)
(1.13912 0.0742398 0)
(1.13566 0.0642362 0)
(1.13264 0.0548951 0)
(1.13008 0.0461616 0)
(1.128 0.0379767 0)
(1.12641 0.0302785 0)
(1.12532 0.0230029 0)
(1.12473 0.0160841 0)
(1.12465 0.00945457 0)
(1.12507 0.00304474 0)
(1.12598 -0.00321769 0)
(1.12739 -0.00940855 0)
(1.12928 -0.0156082 0)
(1.13166 -0.0219029 0)
(1.13451 -0.0283858 0)
(1.13782 -0.0351583 0)
(1.14158 -0.042331 0)
(1.14574 -0.050024 0)
(1.15026 -0.058366 0)
(1.15509 -0.0674915 0)
(1.16012 -0.0775359 0)
(1.16523 -0.0886261 0)
(1.17027 -0.100867 0)
(1.17502 -0.114324 0)
(1.17927 -0.129002 0)
(1.18275 -0.144818 0)
(1.18523 -0.161594 0)
(1.1865 -0.179046 0)
(1.00126 0.027258 0)
(1.00854 0.0793607 0)
(1.0235 0.126087 0)
(1.04334 0.165413 0)
(1.06559 0.196364 0)
(1.08837 0.218792 0)
(1.1102 0.233177 0)
(1.13002 0.240415 0)
(1.14718 0.241613 0)
(1.16144 0.237932 0)
(1.17278 0.230481 0)
(1.1814 0.220252 0)
(1.18759 0.208095 0)
(1.1917 0.194705 0)
(1.19408 0.180639 0)
(1.19509 0.166326 0)
(1.19504 0.152085 0)
(1.19421 0.138151 0)
(1.19285 0.124683 0)
(1.19115 0.111786 0)
(1.18929 0.0995213 0)
(1.18739 0.0879157 0)
(1.18556 0.0769711 0)
(1.18388 0.0666705 0)
(1.18243 0.0569832 0)
(1.18125 0.0478681 0)
(1.18038 0.0392767 0)
(1.17985 0.031155 0)
(1.17966 0.0234451 0)
(1.17985 0.0160854 0)
(1.18042 0.00901151 0)
(1.18137 0.00215625 0)
(1.1827 -0.00455083 0)
(1.18443 -0.0111837 0)
(1.18654 -0.0178205 0)
(1.18904 -0.0245444 0)
(1.1919 -0.031444 0)
(1.19512 -0.0386141 0)
(1.19867 -0.046156 0)
(1.20252 -0.0541767 0)
(1.20661 -0.0627875 0)
(1.21087 -0.0721009 0)
(1.21522 -0.0822254 0)
(1.21954 -0.0932574 0)
(1.22368 -0.10527 0)
(1.22746 -0.1183 0)
(1.2307 -0.132333 0)
(1.23319 -0.147287 0)
(1.23474 -0.163006 0)
(1.2352 -0.179262 0)
(1.00105 0.0233242 0)
(1.0073 0.0684337 0)
(1.02042 0.109674 0)
(1.03827 0.14533 0)
(1.05893 0.174417 0)
(1.08087 0.196567 0)
(1.10278 0.21192 0)
(1.12361 0.221 0)
(1.14267 0.224561 0)
(1.15953 0.223474 0)
(1.17403 0.218625 0)
(1.18617 0.210851 0)
(1.1961 0.200906 0)
(1.20401 0.189437 0)
(1.21016 0.176984 0)
(1.21483 0.163984 0)
(1.21827 0.150778 0)
(1.22072 0.13763 0)
(1.2224 0.124731 0)
(1.2235 0.11222 0)
(1.2242 0.100186 0)
(1.22462 0.0886842 0)
(1.22489 0.077741 0)
(1.2251 0.0673595 0)
(1.22532 0.0575261 0)
(1.22563 0.0482139 0)
(1.22607 0.039386 0)
(1.22668 0.0309976 0)
(1.22749 0.022998 0)
(1.22853 0.0153317 0)
(1.22981 0.00793905 0)
(1.23136 0.000756752 0)
(1.23317 -0.00628202 0)
(1.23526 -0.0132477 0)
(1.23762 -0.0202145 0)
(1.24025 -0.027261 0)
(1.24315 -0.0344697 0)
(1.24629 -0.0419277 0)
(1.24965 -0.0497263 0)
(1.25319 -0.0579596 0)
(1.25687 -0.0667227 0)
(1.26061 -0.0761089 0)
(1.26433 -0.0862043 0)
(1.26792 -0.0970814 0)
(1.27125 -0.10879 0)
(1.27417 -0.121349 0)
(1.27653 -0.134732 0)
(1.27815 -0.148863 0)
(1.2789 -0.163608 0)
(1.27865 -0.178781 0)
(1.00089 0.0199445 0)
(1.00633 0.0588863 0)
(1.01792 0.0950379 0)
(1.03402 0.126968 0)
(1.05314 0.153756 0)
(1.07404 0.174935 0)
(1.09558 0.190438 0)
(1.1168 0.200529 0)
(1.137 0.205699 0)
(1.15567 0.206576 0)
(1.17252 0.203847 0)
(1.18743 0.198195 0)
(1.20041 0.190268 0)
(1.21155 0.180643 0)
(1.221 0.169822 0)
(1.22893 0.158227 0)
(1.23556 0.146202 0)
(1.24107 0.134022 0)
(1.24564 0.121897 0)
(1.24945 0.109987 0)
(1.25266 0.0984048 0)
(1.25539 0.0872258 0)
(1.25776 0.076496 0)
(1.25988 0.0662368 0)
(1.26182 0.0564502 0)
(1.26366 0.0471227 0)
(1.26547 0.0382289 0)
(1.26727 0.0297336 0)
(1.26913 0.0215942 0)
(1.27107 0.013762 0)
(1.27312 0.0061832 0)
(1.2753 -0.00120024 0)
(1.27762 -0.00845032 0)
(1.28009 -0.0156326 0)
(1.28273 -0.0228163 0)
(1.28552 -0.0300739 0)
(1.28847 -0.0374812 0)
(1.29155 -0.0451169 0)
(1.29474 -0.0530619 0)
(1.29801 -0.0613981 0)
(1.3013 -0.0702061 0)
(1.30456 -0.0795624 0)
(1.3077 -0.089535 0)
(1.31064 -0.100178 0)
(1.31324 -0.111525 0)
(1.3154 -0.123581 0)
(1.31698 -0.136315 0)
(1.31785 -0.149659 0)
(1.31789 -0.163498 0)
(1.317 -0.177678 0)
(1.00077 0.0170029 0)
(1.00555 0.0504618 0)
(1.01588 0.0819099 0)
(1.03048 0.110163 0)
(1.04816 0.134398 0)
(1.06794 0.154122 0)
(1.08886 0.169152 0)
(1.11006 0.17958 0)
(1.13085 0.185703 0)
(1.15069 0.187958 0)
(1.16924 0.186863 0)
(1.18628 0.182963 0)
(1.2017 0.176794 0)
(1.2155 0.168858 0)
(1.22775 0.159604 0)
(1.23854 0.149424 0)
(1.24801 0.138649 0)
(1.25629 0.127551 0)
(1.26354 0.116346 0)
(1.26989 0.105204 0)
(1.27548 0.0942525 0)
(1.28043 0.0835817 0)
(1.28485 0.0732523 0)
(1.28884 0.0632998 0)
(1.29248 0.0537394 0)
(1.29586 0.0445695 0)
(1.29903 0.035775 0)
(1.30205 0.0273301 0)
(1.30497 0.0192003 0)
(1.30783 0.0113442 0)
(1.31065 0.00371426 0)
(1.31348 -0.00374149 0)
(1.31633 -0.0110794 0)
(1.31921 -0.0183592 0)
(1.32213 -0.0256442 0)
(1.32509 -0.0330002 0)
(1.3281 -0.0404956 0)
(1.33114 -0.0482005 0)
(1.33418 -0.0561857 0)
(1.33719 -0.0645217 0)
(1.34014 -0.0732761 0)
(1.34296 -0.0825111 0)
(1.34558 -0.0922802 0)
(1.34792 -0.102623 0)
(1.34988 -0.113561 0)
(1.35137 -0.125091 0)
(1.35226 -0.137181 0)
(1.35246 -0.149769 0)
(1.35187 -0.162757 0)
(1.35042 -0.176018 0)
(1.00067 0.0144115 0)
(1.00492 0.0429555 0)
(1.01421 0.0700547 0)
(1.02752 0.0947369 0)
(1.04391 0.116286 0)
(1.06259 0.134225 0)
(1.08277 0.148317 0)
(1.10367 0.158545 0)
(1.12467 0.16507 0)
(1.14522 0.168184 0)
(1.16494 0.168267 0)
(1.18356 0.165741 0)
(1.20089 0.161043 0)
(1.21685 0.154594 0)
(1.23143 0.146787 0)
(1.24465 0.137972 0)
(1.25659 0.128454 0)
(1.26733 0.118493 0)
(1.27698 0.108301 0)
(1.28565 0.0980479 0)
(1.29345 0.0878666 0)
(1.30047 0.0778561 0)
(1.30683 0.0680863 0)
(1.3126 0.0586028 0)
(1.31788 0.0494306 0)
(1.32273 0.0405776 0)
(1.32723 0.0320378 0)
(1.33144 0.0237935 0)
(1.3354 0.0158179 0)
(1.33916 0.00807643 0)
(1.34275 0.00052846 0)
(1.34622 -0.0068719 0)
(1.34959 -0.0141748 0)
(1.35286 -0.0214338 0)
(1.35607 -0.0287055 0)
(1.35921 -0.0360489 0)
(1.36229 -0.0435247 0)
(1.36529 -0.0511943 0)
(1.3682 -0.0591192 0)
(1.37098 -0.0673589 0)
(1.37361 -0.0759699 0)
(1.37602 -0.0850023 0)
(1.37817 -0.0944974 0)
(1.37998 -0.104484 0)
(1.38137 -0.114974 0)
(1.38225 -0.125961 0)
(1.38253 -0.137411 0)
(1.38214 -0.149269 0)
(1.38099 -0.161452 0)
(1.37902 -0.173853 0)
(1.0006 0.0121018 0)
(1.00441 0.0362011 0)
(1.01285 0.0592681 0)
(1.02506 0.0805103 0)
(1.04031 0.0993179 0)
(1.05797 0.115256 0)
(1.07736 0.128069 0)
(1.09782 0.137679 0)
(1.11877 0.144155 0)
(1.13969 0.147682 0)
(1.16019 0.148531 0)
(1.17994 0.147023 0)
(1.19872 0.143504 0)
(1.21639 0.138321 0)
(1.23286 0.131806 0)
(1.24811 0.124264 0)
(1.26215 0.115969 0)
(1.27503 0.107156 0)
(1.28679 0.0980255 0)
(1.29752 0.0887411 0)
(1.3073 0.0794335 0)
(1.31622 0.0702034 0)
(1.32434 0.0611249 0)
(1.33177 0.0522491 0)
(1.33856 0.0436074 0)
(1.34481 0.0352146 0)
(1.35056 0.0270715 0)
(1.35588 0.0191673 0)
(1.36082 0.0114818 0)
(1.36543 0.00398696 0)
(1.36976 -0.0033516 0)
(1.37384 -0.0105735 0)
(1.3777 -0.0177227 0)
(1.38135 -0.0248463 0)
(1.38483 -0.0319942 0)
(1.38814 -0.0392184 0)
(1.39128 -0.0465717 0)
(1.39424 -0.0541074 0)
(1.39702 -0.0618779 0)
(1.39959 -0.0699333 0)
(1.40192 -0.0783196 0)
(1.40397 -0.087077 0)
(1.40569 -0.0962369 0)
(1.40701 -0.105819 0)
(1.40788 -0.11583 0)
(1.40822 -0.126258 0)
(1.40796 -0.137073 0)
(1.40703 -0.148223 0)
(1.40537 -0.159638 0)
(1.40294 -0.171227 0)
(1.00054 0.0100189 0)
(1.00401 0.0300612 0)
(1.01173 0.0493725 0)
(1.02303 0.0673127 0)
(1.0373 0.0833733 0)
(1.05403 0.0971717 0)
(1.07265 0.108462 0)
(1.0926 0.117134 0)
(1.11335 0.123198 0)
(1.13441 0.126765 0)
(1.15538 0.128023 0)
(1.17592 0.12721 0)
(1.19578 0.124594 0)
(1.21477 0.120454 0)
(1.23275 0.115063 0)
(1.24966 0.10868 0)
(1.26544 0.101542 0)
(1.28012 0.0938567 0)
(1.29369 0.0858047 0)
(1.30621 0.0775365 0)
(1.31773 0.069175 0)
(1.32831 0.0608168 0)
(1.33801 0.0525353 0)
(1.34692 0.0443829 0)
(1.35508 0.0363938 0)
(1.36258 0.0285867 0)
(1.36946 0.0209671 0)
(1.3758 0.0135294 0)
(1.38164 0.00625877 0)
(1.38704 -0.000867313 0)
(1.39203 -0.0078775 0)
(1.39666 -0.0148055 0)
(1.40096 -0.0216892 0)
(1.40496 -0.0285694 0)
(1.40867 -0.0354895 0)
(1.41212 -0.0424942 0)
(1.4153 -0.0496291 0)
(1.41823 -0.0569396 0)
(1.42088 -0.0644695 0)
(1.42324 -0.0722604 0)
(1.42529 -0.0803495 0)
(1.42699 -0.088768 0)
(1.42831 -0.0975394 0)
(1.42919 -0.106677 0)
(1.42958 -0.116181 0)
(1.42943 -0.126039 0)
(1.42867 -0.136222 0)
(1.42726 -0.146682 0)
(1.42514 -0.15736 0)
(1.42227 -0.168177 0)
(1.00049 0.00811816 0)
(1.00368 0.0244207 0)
(1.01084 0.0402123 0)
(1.02138 0.0549834 0)
(1.03481 0.0683192 0)
(1.05073 0.0798954 0)
(1.06865 0.0894892 0)
(1.08808 0.0969818 0)
(1.10854 0.10235 0)
(1.12958 0.105655 0)
(1.15081 0.107021 0)
(1.17188 0.106621 0)
(1.19252 0.104658 0)
(1.2125 0.10135 0)
(1.23166 0.0969174 0)
(1.24988 0.0915718 0)
(1.26708 0.0855109 0)
(1.28323 0.0789127 0)
(1.29831 0.0719329 0)
(1.31233 0.0647042 0)
(1.32532 0.0573365 0)
(1.33733 0.0499178 0)
(1.34839 0.0425161 0)
(1.35857 0.0351812 0)
(1.36793 0.027947 0)
(1.37652 0.0208333 0)
(1.38439 0.0138479 0)
(1.39162 0.0069885 0)
(1.39824 0.000244218 0)
(1.40432 -0.00640288 0)
(1.40989 -0.0129765 0)
(1.415 -0.0195051 0)
(1.41967 -0.0260208 0)
(1.42395 -0.0325584 0)
(1.42785 -0.039155 0)
(1.4314 -0.0458485 0)
(1.4346 -0.0526776 0)
(1.43746 -0.0596799 0)
(1.43997 -0.0668919 0)
(1.44212 -0.074347 0)
(1.4439 -0.0820748 0)
(1.44527 -0.0900989 0)
(1.44621 -0.0984361 0)
(1.44668 -0.107094 0)
(1.44663 -0.116069 0)
(1.44602 -0.125348 0)
(1.44481 -0.134901 0)
(1.44295 -0.144688 0)
(1.4404 -0.154654 0)
(1.43713 -0.164733 0)
(1.00045 0.00636226 0)
(1.00342 0.0191809 0)
(1.01012 0.0316496 0)
(1.02005 0.043372 0)
(1.0328 0.0540193 0)
(1.04803 0.0633271 0)
(1.06534 0.071105 0)
(1.08428 0.0772406 0)
(1.10443 0.0816955 0)
(1.12537 0.0844968 0)
(1.14671 0.0857252 0)
(1.16811 0.0855022 0)
(1.18929 0.0839771 0)
(1.20999 0.0813151 0)
(1.23003 0.0776868 0)
(1.24926 0.07326 0)
(1.26757 0.0681934 0)
(1.28489 0.062632 0)
(1.30118 0.0567046 0)
(1.31642 0.0505221 0)
(1.33061 0.0441777 0)
(1.34379 0.0377468 0)
(1.35597 0.0312884 0)
(1.36721 0.0248464 0)
(1.37756 0.0184511 0)
(1.38705 0.012121 0)
(1.39575 0.005864 0)
(1.40371 -0.000320663 0)
(1.41098 -0.00644132 0)
(1.41761 -0.0125125 0)
(1.42365 -0.0185539 0)
(1.42913 -0.0245892 0)
(1.4341 -0.0306455 0)
(1.43858 -0.036752 0)
(1.44261 -0.0429396 0)
(1.44621 -0.0492403 0)
(1.44938 -0.0556856 0)
(1.45214 -0.0623066 0)
(1.45449 -0.0691326 0)
(1.45642 -0.0761899 0)
(1.45791 -0.083501 0)
(1.45896 -0.0910834 0)
(1.45954 -0.0989478 0)
(1.45961 -0.107097 0)
(1.45915 -0.115526 0)
(1.45812 -0.124217 0)
(1.45648 -0.133145 0)
(1.4542 -0.142272 0)
(1.45125 -0.151549 0)
(1.44761 -0.16092 0)
(1.00042 0.00471917 0)
(1.00323 0.0142557 0)
(1.00957 0.0235606 0)
(1.01902 0.0323376 0)
(1.03123 0.0403371 0)
(1.0459 0.047354 0)
(1.06269 0.0532361 0)
(1.08121 0.057887 0)
(1.10106 0.0612653 0)
(1.12185 0.0633786 0)
(1.14321 0.0642765 0)
(1.16481 0.0640407 0)
(1.18634 0.0627765 0)
(1.20755 0.0606034 0)
(1.22823 0.0576473 0)
(1.2482 0.054034 0)
(1.26733 0.0498841 0)
(1.28554 0.0453091 0)
(1.30274 0.0404087 0)
(1.31892 0.0352699 0)
(1.33404 0.029966 0)
(1.34812 0.024557 0)
(1.36118 0.0190898 0)
(1.37324 0.0135996 0)
(1.38435 0.00811084 0)
(1.39455 0.0026381 0)
(1.40388 -0.00281231 0)
(1.4124 -0.00824132 0)
(1.42016 -0.0136561 0)
(1.4272 -0.0190687 0)
(1.43358 -0.0244958 0)
(1.43932 -0.0299571 0)
(1.44448 -0.035475 0)
(1.44908 -0.0410737 0)
(1.45316 -0.0467786 0)
(1.45674 -0.0526156 0)
(1.45983 -0.0586103 0)
(1.46245 -0.0647872 0)
(1.4646 -0.0711692 0)
(1.46629 -0.0777762 0)
(1.4675 -0.0846245 0)
(1.46822 -0.0917259 0)
(1.46844 -0.0990863 0)
(1.46813 -0.106705 0)
(1.46727 -0.114573 0)
(1.46583 -0.122673 0)
(1.46378 -0.130981 0)
(1.46111 -0.13946 0)
(1.45778 -0.148069 0)
(1.45379 -0.156756 0)
(1.0004 0.00316078 0)
(1.00308 0.00956803 0)
(1.00917 0.0158324 0)
(1.01826 0.0217474 0)
(1.03006 0.0271372 0)
(1.04431 0.0318555 0)
(1.0607 0.0357906 0)
(1.07888 0.0388689 0)
(1.09847 0.0410543 0)
(1.11911 0.0423449 0)
(1.14044 0.0427684 0)
(1.16213 0.042376 0)
(1.18387 0.0412362 0)
(1.20541 0.0394288 0)
(1.2265 0.0370392 0)
(1.24698 0.0341538 0)
(1.26668 0.0308558 0)
(1.2855 0.0272232 0)
(1.30335 0.0233257 0)
(1.32019 0.0192247 0)
(1.33597 0.0149716 0)
(1.35069 0.0106086 0)
(1.36436 0.00616854 0)
(1.377 0.00167565 0)
(1.38864 -0.00285376 0)
(1.39932 -0.00741047 0)
(1.40909 -0.0119915 0)
(1.41798 -0.0165994 0)
(1.42605 -0.0212411 0)
(1.43335 -0.0259275 0)
(1.43992 -0.0306727 0)
(1.4458 -0.0354931 0)
(1.45103 -0.0404071 0)
(1.45565 -0.0454344 0)
(1.45969 -0.0505953 0)
(1.46317 -0.0559101 0)
(1.46612 -0.0613987 0)
(1.46855 -0.0670798 0)
(1.47047 -0.0729703 0)
(1.47188 -0.0790845 0)
(1.47278 -0.0854331 0)
(1.47316 -0.0920228 0)
(1.47302 -0.0988551 0)
(1.47233 -0.105926 0)
(1.47108 -0.113224 0)
(1.46924 -0.120733 0)
(1.46681 -0.128426 0)
(1.46376 -0.136272 0)
(1.46007 -0.144231 0)
(1.45574 -0.152259 0)
(1.00039 0.00166178 0)
(1.00299 0.00504774 0)
(1.0089 0.00835991 0)
(1.01776 0.0114748 0)
(1.02928 0.0142866 0)
(1.04324 0.0167062 0)
(1.05935 0.0186646 0)
(1.07728 0.0201145 0)
(1.09668 0.0210307 0)
(1.11719 0.0214082 0)
(1.13846 0.0212594 0)
(1.16017 0.0206111 0)
(1.18201 0.0195005 0)
(1.20372 0.0179721 0)
(1.22505 0.0160739 0)
(1.24582 0.0138546 0)
(1.26585 0.0113617 0)
(1.28504 0.00863932 0)
(1.30327 0.00572707 0)
(1.32049 0.00265925 0)
(1.33665 -0.000535566 0)
(1.35174 -0.00383458 0)
(1.36577 -0.00722069 0)
(1.37873 -0.0106821 0)
(1.39067 -0.014212 0)
(1.40161 -0.017808 0)
(1.41159 -0.0214716 0)
(1.42066 -0.0252079 0)
(1.42886 -0.0290246 0)
(1.43624 -0.0329321 0)
(1.44285 -0.0369426 0)
(1.44873 -0.0410699 0)
(1.45391 -0.0453289 0)
(1.45844 -0.0497348 0)
(1.46234 -0.0543035 0)
(1.46565 -0.0590502 0)
(1.46839 -0.0639895 0)
(1.47057 -0.0691347 0)
(1.47221 -0.0744974 0)
(1.47331 -0.0800864 0)
(1.47387 -0.0859076 0)
(1.4739 -0.0919632 0)
(1.47338 -0.0982509 0)
(1.47231 -0.104763 0)
(1.47067 -0.111488 0)
(1.46845 -0.118407 0)
(1.46564 -0.125494 0)
(1.46222 -0.132721 0)
(1.45818 -0.14005 0)
(1.45352 -0.147441 0)
(1.00038 0.000198648 0)
(1.00294 0.000629072 0)
(1.00876 0.00104363 0)
(1.01749 0.00139792 0)
(1.02887 0.0016538 0)
(1.04267 0.0017787 0)
(1.05862 0.0017467 0)
(1.07641 0.00153922 0)
(1.09568 0.00114496 0)
(1.1161 0.000559317 0)
(1.13731 -0.000216492 0)
(1.159 -0.00117659 0)
(1.18085 -0.00231165 0)
(1.2026 -0.00361015 0)
(1.224 -0.00505945 0)
(1.24485 -0.00664683 0)
(1.265 -0.00836022 0)
(1.2843 -0.0101889 0)
(1.30265 -0.0121239 0)
(1.32 -0.0141581 0)
(1.33628 -0.0162869 0)
(1.35148 -0.0185076 0)
(1.36559 -0.0208197 0)
(1.37862 -0.0232249 0)
(1.39061 -0.0257266 0)
(1.40157 -0.0283302 0)
(1.41155 -0.0310424 0)
(1.42059 -0.0338714 0)
(1.42873 -0.0368263 0)
(1.43603 -0.0399175 0)
(1.44251 -0.0431559 0)
(1.44824 -0.0465528 0)
(1.45325 -0.0501198 0)
(1.45757 -0.0538687 0)
(1.46124 -0.0578107 0)
(1.46428 -0.0619564 0)
(1.46673 -0.0663157 0)
(1.4686 -0.0708968 0)
(1.46991 -0.0757062 0)
(1.47065 -0.080748 0)
(1.47085 -0.0860237 0)
(1.4705 -0.0915314 0)
(1.4696 -0.0972653 0)
(1.46814 -0.103216 0)
(1.46611 -0.109368 0)
(1.46351 -0.115703 0)
(1.46033 -0.122196 0)
(1.45655 -0.128818 0)
(1.45218 -0.135537 0)
(1.44721 -0.142314 0)
(1.00038 -0.00125104 0)
(1.00293 -0.00375115 0)
(1.00874 -0.00621274 0)
(1.01746 -0.00860236 0)
(1.02882 -0.0108913 0)
(1.04259 -0.0130559 0)
(1.05852 -0.0150786 0)
(1.07627 -0.0169488 0)
(1.0955 -0.0186626 0)
(1.11586 -0.0202232 0)
(1.13702 -0.0216392 0)
(1.15864 -0.0229245 0)
(1.18042 -0.0240966 0)
(1.20208 -0.025176 0)
(1.2234 -0.0261846 0)
(1.24416 -0.0271455 0)
(1.26419 -0.0280816 0)
(1.28337 -0.0290157 0)
(1.3016 -0.0299692 0)
(1.3188 -0.0309628 0)
(1.33494 -0.0320156 0)
(1.34997 -0.0331456 0)
(1.36391 -0.0343692 0)
(1.37677 -0.0357017 0)
(1.38855 -0.0371573 0)
(1.3993 -0.0387492 0)
(1.40906 -0.0404896 0)
(1.41786 -0.0423902 0)
(1.42575 -0.0444617 0)
(1.43278 -0.0467145 0)
(1.43899 -0.0491584 0)
(1.44442 -0.0518026 0)
(1.44912 -0.0546559 0)
(1.45311 -0.0577263 0)
(1.45644 -0.0610209 0)
(1.45914 -0.0645463 0)
(1.46122 -0.0683074 0)
(1.46272 -0.0723079 0)
(1.46364 -0.0765498 0)
(1.46399 -0.0810328 0)
(1.46379 -0.0857542 0)
(1.46304 -0.0907085 0)
(1.46174 -0.095887 0)
(1.45988 -0.101277 0)
(1.45746 -0.106863 0)