/*--------------------------------*- C++ -*----------------------------------*\
| =========                 |                                                 |
| \\      /  F ield         | OpenFOAM: The Open Source CFD Toolbox           |
|  \\    /   O peration     | Version:  2306                                  |
|   \\  /    A nd           | Website:  www.openfoam.com                      |
|    \\/     M anipulation  |                                                 |
\*---------------------------------------------------------------------------*/
FoamFile
{
    version     2.0;
    format      ascii;
    arch        "LSB;label=32;scalar=64";
    class       surfaceScalarField;
    location    "0.4";
    object      phi;
}
// * * * * * * * * * * * * * * * * * * * * * * * * * * * * * * * * * * * * * //

dimensions      [0 3 -1 0 0 0 0];

oriented        oriented;

internalField   nonuniform List<scalar> 
890
(
8.50913e-05
1.49087e-05
7.26699e-05
1.24214e-05
6.71595e-05
5.51044e-06
6.78794e-05
-7.19964e-07
-9.5901e-06
7.74695e-05
0.0001097
5.20867e-06
0.000117543
4.57874e-06
0.000122405
6.48553e-07
0.000126113
-4.42837e-06
-1.13754e-05
0.000127898
0.00011182
-6.61126e-06
0.000124952
-8.5534e-06
0.000133372
-7.77168e-06
0.000137101
-8.15734e-06
-1.04698e-05
0.000136196
0.000109059
-1.56698e-05
0.000115017
-1.4512e-05
0.000116578
-9.33298e-06
0.000114866
-6.44495e-06
-5.61202e-06
0.000110008
8.43302e-05
6.98182e-05
6.04852e-05
5.40403e-05
4.84282e-05
-1.60548e-06
1.60548e-06
-2.47507e-06
8.69582e-07
-1.75149e-06
-7.23577e-07
2.37087e-07
-1.98858e-06
2.90028e-06
-2.66319e-06
5.73058e-06
-2.83031e-06
8.35947e-06
-2.62888e-06
1.05827e-05
-2.22328e-06
1.23273e-05
-1.74454e-06
1.36061e-05
-1.27883e-06
1.44798e-05
-8.73664e-07
1.5028e-05
-5.48229e-07
1.53315e-05
-3.0352e-07
1.54621e-05
-1.30555e-07
1.54783e-05
-1.61981e-08
1.5425e-05
5.32564e-08
1.53347e-05
9.02865e-08
1.52297e-05
1.04996e-07
1.51245e-05
1.0526e-07
1.50275e-05
9.69664e-08
1.49432e-05
8.42814e-08
1.48732e-05
7.00042e-08
1.48173e-05
5.59106e-08
1.47743e-05
4.30343e-08
1.47424e-05
3.18899e-08
1.47197e-05
2.26454e-08
1.47045e-05
1.52509e-08
1.4695e-05
9.53301e-09
1.46897e-05
5.25975e-09
1.46875e-05
2.18386e-09
1.46874e-05
7.21078e-11
1.46887e-05
-1.29286e-09
1.46908e-05
-2.08669e-09
1.46933e-05
-2.46003e-09
1.46958e-05
-2.53278e-09
1.46982e-05
-2.40218e-09
1.47004e-05
-2.14523e-09
1.47022e-05
-1.82175e-09
1.47037e-05
-1.47724e-09
1.47048e-05
-1.14526e-09
1.47057e-05
-8.49629e-10
1.47063e-05
-6.06784e-10
1.47067e-05
-4.28885e-10
1.4707e-05
-3.31806e-10
-3.38043e-10
-1.91013e-06
3.51561e-06
-1.45044e-06
4.09892e-07
1.66406e-06
-3.83807e-06
6.60141e-06
-6.92593e-06
1.23983e-05
-8.46005e-06
1.82401e-05
-8.67213e-06
2.35909e-05
-7.97965e-06
2.81571e-05
-6.78951e-06
3.18314e-05
-5.41886e-06
3.46326e-05
-4.08e-06
3.66541e-05
-2.89512e-06
3.80247e-05
-1.91893e-06
3.88821e-05
-1.16087e-06
3.93551e-05
-6.03547e-07
3.95553e-05
-2.16387e-07
3.95736e-05
3.49801e-08
3.94797e-05
1.84176e-07
3.93251e-05
2.59582e-07
3.91459e-05
2.84466e-07
3.89657e-05
2.77094e-07
3.87991e-05
2.50975e-07
3.86534e-05
2.1566e-07
3.85317e-05
1.77578e-07
3.8434e-05
1.40782e-07
3.83583e-05
1.07591e-07
3.83018e-05
7.9106e-08
3.82614e-05
5.56183e-08
3.82341e-05
3.69184e-08
3.82168e-05
2.25183e-08
3.82072e-05
1.18065e-08
3.82031e-05
4.14673e-09
3.82029e-05
-1.05602e-09
3.82051e-05
-4.3509e-09
3.82089e-05
-6.18681e-09
3.82133e-05
-6.94634e-09
3.82178e-05
-6.9463e-09
3.82221e-05
-6.44342e-09
3.82259e-05
-5.64207e-09
3.82292e-05
-4.70162e-09
3.82318e-05
-3.7426e-09
3.82338e-05
-2.85229e-09
3.82352e-05
-2.09065e-09
3.82363e-05
-1.4962e-09
3.82371e-05
-1.09478e-09
-9.17176e-10
5.10048e-09
3.51051e-06
3.86229e-06
-3.4473e-06
1.04089e-05
-1.03847e-05
1.80365e-05
-1.45535e-05
2.56838e-05
-1.61074e-05
3.27459e-05
-1.57342e-05
3.89016e-05
-1.41354e-05
4.40228e-05
-1.19107e-05
4.81093e-05
-9.50535e-06
5.124e-05
-7.2107e-06
5.3537e-05
-5.19211e-06
5.51401e-05
-3.52205e-06
5.61898e-05
-2.21048e-06
5.68159e-05
-1.22965e-06
5.7132e-05
-5.325e-07
5.72328e-05
-6.58827e-08
5.71923e-05
2.24724e-07
5.70679e-05
3.83957e-07
5.69015e-05
4.50927e-07
5.67217e-05
4.568e-07
5.65475e-05
4.25231e-07
5.63897e-05
3.73433e-07
5.62539e-05
3.13369e-07
5.61418e-05
2.5289e-07
5.60527e-05
1.96754e-07
5.59843e-05
1.47484e-07
5.59338e-05
1.06068e-07
5.58982e-05
7.25037e-08
5.58746e-05
4.61996e-08
5.58601e-05
2.62672e-08
5.58525e-05
1.17121e-08
5.58499e-05
1.56285e-09
5.58507e-05
-5.11558e-09
5.58536e-05
-9.08537e-09
5.58577e-05
-1.10215e-08
5.58622e-05
-1.14908e-08
5.58667e-05
-1.0959e-08
5.58709e-05
-9.80177e-09
5.58745e-05
-8.3165e-09
5.58775e-05
-6.73122e-09
5.58798e-05
-5.21357e-09
5.58816e-05
-3.87961e-09
5.58829e-05
-2.80267e-09
5.58839e-05
-2.02178e-09
-1.57783e-09
5.92882e-06
-2.4183e-06
1.55384e-05
-1.30569e-05
2.58964e-05
-2.07426e-05
3.5248e-05
-2.39052e-05
4.31532e-05
-2.40126e-05
4.96174e-05
-2.21984e-05
5.47796e-05
-1.92976e-05
5.88154e-05
-1.59465e-05
6.19029e-05
-1.25929e-05
6.42081e-05
-9.51591e-06
6.58792e-05
-6.86316e-06
6.70451e-05
-4.68801e-06
6.78169e-05
-2.98222e-06
6.82885e-05
-1.70124e-06
6.85386e-05
-7.82645e-07
6.86322e-05
-1.59489e-07
6.86197e-05
2.37243e-07
6.85414e-05
4.62244e-07
6.84277e-05
5.64687e-07
6.82999e-05
5.84594e-07
6.81725e-05
5.52558e-07
6.80547e-05
4.91237e-07
6.79514e-05
4.16686e-07
6.78646e-05
3.39687e-07
6.77944e-05
2.6697e-07
6.77396e-05
2.02283e-07
6.76984e-05
1.47283e-07
6.76686e-05
1.02243e-07
6.76483e-05
6.6587e-08
6.76352e-05
3.92843e-08
6.76278e-05
1.91157e-08
6.76245e-05
4.85471e-09
6.76241e-05
-4.71219e-09
6.76256e-05
-1.05835e-08
6.76283e-05
-1.36383e-08
6.76314e-05
-1.46433e-08
6.76347e-05
-1.42263e-08
6.76378e-05
-1.28986e-08
6.76405e-05
-1.10676e-08
6.76428e-05
-9.04882e-09
6.76447e-05
-7.07614e-09
6.76461e-05
-5.3128e-09
6.76472e-05
-3.86255e-09
6.7648e-05
-2.77904e-09
-2.11039e-09
2.23063e-05
-2.47246e-05
3.9244e-05
-2.99946e-05
5.06962e-05
-3.21948e-05
5.86464e-05
-3.18554e-05
6.40586e-05
-2.94249e-05
6.7656e-05
-2.57957e-05
7.00062e-05
-2.16478e-05
7.15203e-05
-1.74606e-05
7.24852e-05
-1.35578e-05
7.30958e-05
-1.01265e-05
7.34793e-05
-7.24666e-06
7.3716e-05
-4.92469e-06
7.38553e-05
-3.12158e-06
7.39282e-05
-1.77407e-06
7.39546e-05
-8.09021e-07
7.39488e-05
-1.53784e-07
7.39207e-05
2.65379e-07
7.3879e-05
5.03954e-07
7.38303e-05
6.1334e-07
7.37798e-05
6.35145e-07
7.3731e-05
6.01344e-07
7.36864e-05
5.35828e-07
7.36474e-05
4.55689e-07
7.36146e-05
3.72529e-07
7.35879e-05
2.93673e-07
7.35669e-05
2.23265e-07
7.3551e-05
1.63196e-07
7.35394e-05
1.13843e-07
7.35313e-05
7.46455e-08
7.35261e-05
4.45294e-08
7.3523e-05
2.21997e-08
7.35215e-05
6.33941e-09
7.35212e-05
-4.35984e-09
7.35216e-05
-1.09958e-08
7.35224e-05
-1.45105e-08
7.35235e-05
-1.575e-08
7.35247e-05
-1.54032e-08
7.35259e-05
-1.40323e-08
7.35269e-05
-1.2087e-08
7.35277e-05
-9.91628e-09
7.35284e-05
-7.77956e-09
7.3529e-05
-5.85849e-09
7.35294e-05
-4.26896e-09
7.35297e-05
-3.07109e-09
-2.31507e-09
7.97964e-05
-2.70515e-05
8.32627e-05
-3.34609e-05
8.50583e-05
-3.39904e-05
8.53043e-05
-3.21013e-05
8.44811e-05
-2.86017e-05
8.29857e-05
-2.43003e-05
8.11877e-05
-1.98498e-05
7.93798e-05
-1.56527e-05
7.77481e-05
-1.19261e-05
7.63857e-05
-8.76404e-06
7.53179e-05
-6.1789e-06
7.45276e-05
-4.13443e-06
7.39753e-05
-2.56924e-06
7.36132e-05
-1.41199e-06
7.33946e-05
-5.90424e-07
7.32795e-05
-3.86772e-08
7.32334e-05
3.11452e-07
7.32322e-05
5.05194e-07
7.32568e-05
5.88787e-07
7.32942e-05
5.97694e-07
7.3336e-05
5.59505e-07
7.3377e-05
4.94881e-07
7.34141e-05
4.18615e-07
7.34459e-05
3.40745e-07
7.34719e-05
2.67584e-07
7.34925e-05
2.02662e-07
7.35082e-05
1.47528e-07
7.35197e-05
1.02403e-07
7.35276e-05
6.66902e-08
7.35328e-05
3.93482e-08
7.35358e-05
1.91527e-08
7.35373e-05
4.8742e-09
7.35376e-05
-4.70339e-09
7.35372e-05
-1.05808e-08
7.35364e-05
-1.36385e-08
7.35353e-05
-1.46446e-08
7.35341e-05
-1.42277e-08
7.35329e-05
-1.28996e-08
7.35319e-05
-1.10683e-08
7.35311e-05
-9.04922e-09
7.35304e-05
-7.07635e-09
7.35298e-05
-5.31288e-09
7.35294e-05
-3.86255e-09
7.35291e-05
-2.779e-09
-2.11036e-09
0.000122526
-2.16788e-05
0.000115897
-2.68326e-05
0.000108971
-2.70641e-05
0.00010184
-2.49707e-05
9.49684e-05
-2.17299e-05
8.87039e-05
-1.80357e-05
8.32503e-05
-1.43962e-05
7.87038e-05
-1.11062e-05
7.50673e-05
-8.28965e-06
7.22732e-05
-5.96993e-06
7.02126e-05
-4.11828e-06
6.876e-05
-2.6819e-06
6.77907e-05
-1.59985e-06
6.71902e-05
-8.11487e-07
6.68603e-05
-2.60525e-07
6.67184e-05
1.03137e-07
6.67046e-05
3.253e-07
6.67684e-05
4.41409e-07
6.68746e-05
4.82576e-07
6.69986e-05
4.73713e-07
6.7124e-05
4.34084e-07
6.72408e-05
3.78049e-07
6.73436e-05
3.15826e-07
6.74301e-05
2.54264e-07
6.75001e-05
1.97575e-07
6.75548e-05
1.48006e-07
6.75959e-05
1.06412e-07
6.76255e-05
7.27305e-08
6.76459e-05
4.63454e-08
6.76589e-05
2.63563e-08
6.76663e-05
1.17626e-08
6.76696e-05
1.58845e-09
6.767e-05
-5.1049e-09
6.76685e-05
-9.08278e-09
6.76658e-05
-1.10226e-08
6.76627e-05
-1.14931e-08
6.76594e-05
-1.09611e-08
6.76563e-05
-9.80334e-09
6.76536e-05
-8.31749e-09
6.76513e-05
-6.73177e-09
6.76494e-05
-5.21382e-09
6.7648e-05
-3.87967e-09
6.76469e-05
-2.80263e-09
6.76462e-05
-2.02173e-09
-1.57778e-09
0.000129041
-1.45242e-05
0.000118859
-1.66507e-05
0.000107974
-1.61792e-05
9.73692e-05
-1.43657e-05
8.7715e-05
-1.20757e-05
7.94045e-05
-9.72515e-06
7.2561e-05
-7.55272e-06
6.71342e-05
-5.67939e-06
6.29792e-05
-4.13467e-06
5.99086e-05
-2.89936e-06
5.77264e-05
-1.93602e-06
5.62475e-05
-1.20309e-06
5.53085e-05
-6.60789e-07
5.47703e-05
-2.73262e-07
5.45181e-05
-8.36859e-09
5.44617e-05
1.59525e-07
5.45311e-05
2.5588e-07
5.46734e-05
2.99162e-07
5.48504e-05
3.05548e-07
5.50361e-05
2.8802e-07
5.52136e-05
2.5657e-07
5.53731e-05
2.18565e-07
5.55098e-05
1.79159e-07
5.56223e-05
1.4171e-07
5.57117e-05
1.0818e-07
5.57802e-05
7.94988e-08
5.58307e-05
5.58841e-08
5.58664e-05
3.70948e-08
5.58901e-05
2.26302e-08
5.59046e-05
1.18728e-08
5.59122e-05
4.1825e-09
5.59148e-05
-1.03947e-09
5.5914e-05
-4.34522e-09
5.59111e-05
-6.18657e-09
5.59071e-05
-6.94818e-09
5.59025e-05
-6.94846e-09
5.5898e-05
-6.44517e-09
5.58938e-05
-5.64325e-09
5.58902e-05
-4.70229e-09
5.58872e-05
-3.74288e-09
5.58849e-05
-2.85233e-09
5.58831e-05
-2.09058e-09
5.58818e-05
-1.49612e-09
5.58808e-05
-1.09474e-09
-9.17144e-10
0.000101482
-5.99761e-06
9.09182e-05
-6.0871e-06
8.02128e-05
-5.47374e-06
7.03949e-05
-4.54776e-06
6.19348e-05
-3.61569e-06
5.49909e-05
-2.78129e-06
4.95138e-05
-2.07557e-06
4.53381e-05
-1.50374e-06
4.2257e-05
-1.05355e-06
4.00635e-05
-7.05796e-07
3.85693e-05
-4.41817e-07
3.76119e-05
-2.45685e-07
3.70552e-05
-1.04138e-07
3.67882e-05
-6.2661e-09
3.67222e-05
5.75904e-08
3.67869e-05
9.48679e-08
3.69301e-05
1.12693e-07
3.71127e-05
1.16527e-07
3.73073e-05
1.10971e-07
3.74956e-05
9.97376e-08
3.76665e-05
8.56457e-08
3.78143e-05
7.07239e-08
3.79372e-05
5.63376e-08
3.80356e-05
4.3319e-08
3.81116e-05
3.20927e-08
3.81684e-05
2.27909e-08
3.82089e-05
1.53522e-08
3.82364e-05
9.59978e-09
3.82537e-05
5.30072e-09
3.82634e-05
2.20675e-09
3.82675e-05
8.34676e-11
3.82677e-05
-1.28859e-09
3.82655e-05
-2.08595e-09
3.82617e-05
-2.46078e-09
3.82573e-05
-2.5339e-09
3.82528e-05
-2.40318e-09
3.82485e-05
-2.14599e-09
3.82447e-05
-1.82224e-09
3.82414e-05
-1.4775e-09
3.82388e-05
-1.14537e-09
3.82368e-05
-8.49671e-10
3.82354e-05
-6.06828e-10
3.82343e-05
-4.28934e-10
3.82335e-05
-3.31822e-10
-3.3801e-10
4.24306e-05
3.63435e-05
3.08698e-05
2.6322e-05
2.27063e-05
1.9925e-05
1.78495e-05
1.63457e-05
1.52922e-05
1.45864e-05
1.41446e-05
1.38989e-05
1.37948e-05
1.37885e-05
1.38461e-05
1.39409e-05
1.40536e-05
1.41702e-05
1.42811e-05
1.43809e-05
1.44665e-05
1.45372e-05
1.45936e-05
1.46369e-05
1.4669e-05
1.46918e-05
1.47071e-05
1.47167e-05
1.4722e-05
1.47242e-05
1.47243e-05
1.4723e-05
1.4721e-05
1.47185e-05
1.4716e-05
1.47136e-05
1.47114e-05
1.47096e-05
1.47081e-05
1.4707e-05
1.47061e-05
1.47055e-05
1.47051e-05
1.47047e-05
)
;

boundaryField
{
    fixedWalls
    {
        type            calculated;
        value           uniform 0;
    }
    inflowWall
    {
        type            calculated;
        value           nonuniform List<scalar> 5(-0.0001 -0.0001 -0.0001 -0.0001 -0.0001);
    }
    outflowWall
    {
        type            calculated;
        value           nonuniform List<scalar> 10(1.47074e-05 3.82377e-05 5.58845e-05 6.76485e-05 7.35299e-05 7.35289e-05 6.76456e-05 5.58802e-05 3.82329e-05 1.47044e-05);
    }
    frontAndBack
    {
        type            empty;
        value           nonuniform List<scalar> 0();
    }
}


// ************************************************************************* //
