/*--------------------------------*- C++ -*----------------------------------*\
| =========                 |                                                 |
| \\      /  F ield         | OpenFOAM: The Open Source CFD Toolbox           |
|  \\    /   O peration     | Version:  2306                                  |
|   \\  /    A nd           | Website:  www.openfoam.com                      |
|    \\/     M anipulation  |                                                 |
\*---------------------------------------------------------------------------*/
FoamFile
{
    version     2.0;
    format      ascii;
    arch        "LSB;label=32;scalar=64";
    class       volScalarField;
    location    "9.2";
    object      p;
}
// * * * * * * * * * * * * * * * * * * * * * * * * * * * * * * * * * * * * * //

dimensions      [0 2 -2 0 0 0 0];

internalField   nonuniform List<scalar> 
1900
(
0.0529531
0.0287359
0.00834802
-0.00698612
-0.0179977
-0.0285395
-0.0389632
-0.0511019
-0.0636231
-0.0776313
0.0236918
0.0154946
0.0041826
-0.00736449
-0.0183808
-0.0285577
-0.0389755
-0.0494699
-0.0609436
-0.0719772
0.0145937
0.0101044
0.00259175
-0.00677203
-0.0168498
-0.0268215
-0.0365921
-0.0461348
-0.0555503
-0.0646202
0.00888716
0.0058146
0.0001666
-0.00747897
-0.0163267
-0.0255623
-0.0347478
-0.0436555
-0.0522414
-0.0603963
0.00665627
0.00412112
-0.000617082
-0.00726454
-0.0152425
-0.0238449
-0.0325187
-0.0409416
-0.048966
-0.0565036
0.00728372
0.00480255
0.000190976
-0.00627537
-0.0140158
-0.022322
-0.0306358
-0.0386405
-0.0462128
-0.0533242
0.0107329
0.00778588
0.00250281
-0.0045833
-0.0126478
-0.0209406
-0.0289963
-0.0366381
-0.0438583
-0.0506924
0.0174265
0.0131296
0.00622903
-0.00224427
-0.0110705
-0.0195034
-0.0273476
-0.0346973
-0.0417026
-0.0484261
0.0275626
0.0194618
0.0090223
-0.00144413
-0.0107589
-0.0188808
-0.0262628
-0.0333282
-0.0402411
-0.0469619
0.0564108
0.0337364
0.0140255
-4.33705e-05
-0.00970924
-0.0174156
-0.0246593
-0.0318957
-0.0390754
-0.0459938
-0.100757
-0.10079
-0.100835
-0.100889
-0.100949
-0.101015
-0.101086
-0.101161
-0.101239
-0.101318
-0.101396
-0.101472
-0.101543
-0.101608
-0.101665
-0.101712
-0.101748
-0.10177
-0.101777
-0.101768
-0.101742
-0.101697
-0.101632
-0.101547
-0.101439
-0.10131
-0.101158
-0.100983
-0.100784
-0.100561
-0.100312
-0.100039
-0.0997393
-0.0994128
-0.0990582
-0.0986742
-0.098259
-0.0978105
-0.0973255
-0.0968002
-0.0962294
-0.0956063
-0.0949222
-0.0941655
-0.0933219
-0.0923731
-0.0912974
-0.0900694
-0.0886607
-0.0870403
-0.0851739
-0.083025
-0.0805545
-0.0777215
-0.0744819
-0.0707921
-0.0666177
-0.0619369
-0.0567308
-0.0510051
-0.0447968
-0.0381538
-0.0311463
-0.0238685
-0.0164314
-0.00895975
-0.00158284
0.00556945
0.0123659
0.0186977
0.0244481
0.0295496
0.0339163
0.0375293
0.0403322
0.0423498
0.0435604
0.0440187
0.0437213
0.0427493
0.0411021
0.0388765
0.0360609
0.0327615
0.0289376
0.0247095
0.0199768
0.0149038
0.00926192
0.00337166
-0.100752
-0.100783
-0.100811
-0.100852
-0.100903
-0.100962
-0.101028
-0.101099
-0.101173
-0.101248
-0.101324
-0.101397
-0.101466
-0.10153
-0.101586
-0.101632
-0.101667
-0.101689
-0.101697
-0.101688
-0.101662
-0.101617
-0.101553
-0.101467
-0.101361
-0.101231
-0.101079
-0.100903
-0.100703
-0.100478
-0.100227
-0.099951
-0.0996479
-0.099317
-0.0989572
-0.098567
-0.0981446
-0.0976876
-0.097193
-0.0966568
-0.0960741
-0.0954383
-0.0947415
-0.0939734
-0.0931213
-0.0921696
-0.0910992
-0.0898875
-0.0885088
-0.0869346
-0.0851315
-0.0830616
-0.0806821
-0.077947
-0.0748062
-0.071207
-0.0671085
-0.0625071
-0.0573868
-0.0517463
-0.0455986
-0.0389974
-0.0320156
-0.0247505
-0.0173137
-0.00983216
-0.00244126
0.00472993
0.011537
0.0178931
0.0236496
0.028765
0.0331359
0.0367563
0.0395635
0.0415889
0.0428019
0.0432707
0.0429777
0.0420222
0.0403838
0.0381839
0.0353835
0.0321208
0.028321
0.0241397
0.01945
0.0144332
0.00891223
0.00314406
-0.100635
-0.100716
-0.100761
-0.100815
-0.100871
-0.100932
-0.100999
-0.101072
-0.101148
-0.101227
-0.101305
-0.101382
-0.101455
-0.101523
-0.101583
-0.101633
-0.101671
-0.101697
-0.101708
-0.101702
-0.101678
-0.101636
-0.101573
-0.101489
-0.101383
-0.101254
-0.101102
-0.100925
-0.100724
-0.100498
-0.100247
-0.0999701
-0.0996663
-0.0993351
-0.0989754
-0.0985859
-0.098165
-0.0977105
-0.0972195
-0.0966883
-0.0961118
-0.0954835
-0.0947955
-0.0940388
-0.0932026
-0.0922737
-0.0912355
-0.0900673
-0.0887448
-0.087241
-0.085523
-0.083549
-0.0812685
-0.0786339
-0.0756024
-0.072119
-0.0681262
-0.0635796
-0.0584778
-0.0528359
-0.0466806
-0.0400711
-0.0330778
-0.0257967
-0.0183525
-0.0108731
-0.00349841
0.00366024
0.0104485
0.0167786
0.0225107
0.0275963
0.031937
0.0355257
0.0383026
0.0403015
0.0414926
0.0419474
0.0416503
0.0407007
0.0390833
0.0369153
0.0341682
0.0309689
0.0272647
0.023188
0.0186557
0.0138103
0.00854767
0.00303554
-0.100716
-0.10079
-0.100795
-0.10082
-0.100866
-0.100928
-0.101001
-0.101082
-0.101167
-0.101254
-0.101341
-0.101426
-0.101507
-0.101581
-0.101647
-0.101702
-0.101746
-0.101775
-0.101788
-0.101785
-0.101763
-0.101721
-0.101658
-0.101574
-0.101467
-0.101336
-0.101182
-0.101003
-0.1008
-0.100571
-0.100316
-0.100036
-0.0997299
-0.0993968
-0.0990358
-0.0986458
-0.0982255
-0.097773
-0.097286
-0.0967607
-0.0961922
-0.0955739
-0.094898
-0.0941571
-0.0933421
-0.0924416
-0.0914399
-0.0903171
-0.0890474
-0.0876073
-0.0859635
-0.0840715
-0.0818753
-0.0793173
-0.0763336
-0.0728865
-0.068923
-0.0644113
-0.0593399
-0.0537259
-0.047597
-0.0410171
-0.0340637
-0.0268374
-0.0194631
-0.0120651
-0.00478655
0.00225684
0.00892147
0.0151134
0.0207111
0.0256578
0.0298706
0.0333365
0.0360097
0.0379185
0.0390464
0.0394572
0.0391502
0.0382129
0.0366474
0.0345539
0.0319256
0.0288674
0.0253563
0.0214977
0.0172495
0.0127195
0.00784747
0.00274997
-0.100393
-0.100598
-0.100688
-0.100792
-0.100891
-0.100984
-0.101076
-0.101171
-0.101268
-0.101366
-0.101462
-0.101554
-0.101641
-0.10172
-0.101789
-0.101847
-0.101892
-0.101922
-0.101935
-0.10193
-0.101906
-0.101862
-0.101796
-0.101708
-0.101596
-0.101462
-0.101303
-0.101119
-0.10091
-0.100677
-0.100419
-0.100135
-0.0998269
-0.0994927
-0.0991316
-0.098742
-0.0983234
-0.0978744
-0.0973924
-0.096874
-0.0963142
-0.0957061
-0.0950413
-0.0943155
-0.0935206
-0.0926441
-0.0916692
-0.0905799
-0.089344
-0.0879292
-0.0862987
-0.084416
-0.0822222
-0.0796667
-0.0766861
-0.0732377
-0.0692713
-0.0647654
-0.0597106
-0.0541289
-0.0480557
-0.0415571
-0.0347156
-0.0276349
-0.0204352
-0.0132417
-0.00618949
0.000601817
0.00700555
0.0129245
0.0182571
0.0229431
0.0269179
0.0301646
0.0326551
0.0344119
0.0354355
0.0357796
0.0354612
0.0345532
0.0330764
0.0311122
0.0286756
0.0258495
0.0226367
0.0191189
0.0152848
0.0112166
0.00689022
0.00239677
-0.101224
-0.101247
-0.101146
-0.101101
-0.101111
-0.101169
-0.101257
-0.101357
-0.10146
-0.101561
-0.101658
-0.10175
-0.101835
-0.101911
-0.101976
-0.102028
-0.102067
-0.10209
-0.102097
-0.102086
-0.102055
-0.102004
-0.101931
-0.101836
-0.101719
-0.101578
-0.101413
-0.101225
-0.101012
-0.100774
-0.100513
-0.100227
-0.0999164
-0.0995809
-0.099219
-0.0988288
-0.0984127
-0.0979681
-0.0974914
-0.0969791
-0.0964263
-0.0958268
-0.0951707
-0.0944473
-0.0936483
-0.0927649
-0.0917784
-0.0906697
-0.0894084
-0.0879655
-0.0862997
-0.0843714
-0.0821247
-0.0795116
-0.0764749
-0.0729753
-0.0689745
-0.0644582
-0.0594237
-0.0538985
-0.047925
-0.041574
-0.0349304
-0.0281
-0.021197
-0.0143445
-0.0076646
-0.00127355
0.00471997
0.0102231
0.0151541
0.0194557
0.0230827
0.0260185
0.0282533
0.0298065
0.0306948
0.0309636
0.030645
0.0297987
0.0284603
0.0266945
0.024532
0.0220365
0.0192292
0.0161708
0.0128721
0.00939371
0.00573758
0.00196875
-0.0999035
-0.100547
-0.100749
-0.101005
-0.101219
-0.101382
-0.101503
-0.101604
-0.101697
-0.101784
-0.101868
-0.101945
-0.102015
-0.102076
-0.102128
-0.102167
-0.102194
-0.102206
-0.102203
-0.102182
-0.102143
-0.102084
-0.102005
-0.101904
-0.101781
-0.101635
-0.101466
-0.101273
-0.101057
-0.100818
-0.100555
-0.100268
-0.0999578
-0.0996229
-0.0992622
-0.0988721
-0.098449
-0.0979955
-0.0975087
-0.0969838
-0.096414
-0.0957927
-0.0951102
-0.0943578
-0.0935236
-0.0925956
-0.0915538
-0.0903777
-0.0890371
-0.0875014
-0.0857302
-0.0836846
-0.0813165
-0.078583
-0.0754384
-0.0718511
-0.0677948
-0.0632646
-0.0582679
-0.0528392
-0.0470274
-0.0409074
-0.0345643
-0.0281028
-0.0216296
-0.0152606
-0.00910282
-0.00326101
0.00217653
0.00712896
0.0115353
0.0153474
0.0185392
0.021099
0.0230333
0.0243601
0.0251096
0.0253195
0.0250324
0.0242955
0.0231539
0.0216562
0.0198436
0.0177612
0.0154428
0.0129291
0.0102462
0.00743281
0.00450895
0.00151526
-0.104609
-0.10323
-0.102601
-0.102167
-0.10194
-0.101851
-0.101838
-0.101863
-0.101902
-0.101948
-0.101997
-0.102046
-0.102092
-0.102135
-0.102171
-0.102198
-0.102214
-0.102219
-0.102208
-0.102179
-0.102134
-0.10207
-0.101986
-0.101882
-0.101758
-0.101612
-0.101442
-0.101245
-0.101024
-0.100777
-0.100506
-0.100209
-0.0998858
-0.0995344
-0.099153
-0.0987394
-0.0982913
-0.0978068
-0.097282
-0.0967117
-0.0960883
-0.0954041
-0.0946488
-0.0938119
-0.0928797
-0.091838
-0.0906675
-0.0893467
-0.0878473
-0.0861397
-0.0841881
-0.0819576
-0.0794094
-0.0765093
-0.0732255
-0.0695381
-0.0654344
-0.0609203
-0.056014
-0.0507565
-0.0452008
-0.0394219
-0.0335015
-0.0275383
-0.0216277
-0.0158739
-0.0103669
-0.00519544
-0.00042498
0.00388082
0.0076828
0.0109458
0.0136617
0.0158246
0.0174539
0.018566
0.0191992
0.0193833
0.0191664
0.0185827
0.0176827
0.0164991
0.0150795
0.0134512
0.0116566
0.00971717
0.00766988
0.00553154
0.00333379
0.00109011
-0.0987757
-0.099856
-0.100691
-0.101302
-0.101619
-0.101738
-0.101773
-0.101787
-0.101803
-0.101833
-0.101871
-0.101911
-0.101951
-0.101988
-0.10202
-0.102046
-0.102062
-0.10207
-0.102068
-0.102049
-0.102008
-0.101945
-0.101861
-0.101753
-0.101621
-0.101464
-0.101281
-0.10107
-0.100831
-0.100561
-0.100261
-0.0999285
-0.0995629
-0.0991622
-0.0987243
-0.0982461
-0.0977241
-0.0971545
-0.0965324
-0.0958519
-0.0951054
-0.0942841
-0.0933772
-0.0923732
-0.0912583
-0.0900182
-0.0886354
-0.08709
-0.0853584
-0.0834153
-0.0812328
-0.0787836
-0.0760401
-0.0729792
-0.0695805
-0.0658346
-0.061742
-0.05732
-0.0525962
-0.0476167
-0.0424354
-0.0371239
-0.0317558
-0.0264174
-0.021188
-0.0161534
-0.0113823
-0.00694562
-0.00288993
0.000738551
0.00392116
0.00663562
0.00888825
0.0106772
0.01203
0.0129594
0.0135079
0.0136961
0.0135743
0.0131644
0.0125195
0.0116573
0.0106302
0.00944845
0.00816164
0.00677175
0.00532578
0.00381815
0.00229265
0.000733798
-0.121415
-0.106521
-0.104596
-0.10312
-0.102205
-0.101777
-0.101601
-0.10154
-0.101525
-0.10153
-0.101571
-0.101631
-0.101694
-0.101756
-0.101811
-0.101859
-0.101896
-0.101919
-0.101924
-0.101906
-0.10186
-0.101786
-0.101682
-0.101546
-0.101379
-0.101178
-0.100946
-0.10068
-0.100377
-0.100035
-0.0996519
-0.0992257
-0.0987552
-0.0982385
-0.0976733
-0.0970563
-0.0963835
-0.0956507
-0.0948527
-0.0939836
-0.0930359
-0.0920013
-0.0908701
-0.0896316
-0.0882732
-0.0867806
-0.0851381
-0.0833291
-0.0813361
-0.0791408
-0.0767247
-0.0740703
-0.0711619
-0.0679884
-0.0645434
-0.0608296
-0.0568581
-0.0526525
-0.0482442
-0.0436775
-0.0390017
-0.0342777
-0.0295669
-0.0249389
-0.0204555
-0.0161828
-0.0121703
-0.00847029
-0.00511348
-0.00213176
0.000470833
0.00268203
0.00451682
0.00597531
0.00708838
0.00786532
0.00834971
0.00855445
0.00853077
0.00828933
0.0078855
0.00732311
0.00665926
0.00588711
0.00506435
0.00417112
0.00326657
0.00231752
0.00138602
0.000420802
-0.0890323
-0.0954645
-0.0979707
-0.0988203
-0.0992757
-0.0996854
-0.100065
-0.100385
-0.100662
-0.100903
-0.101112
-0.10129
-0.101442
-0.101572
-0.101683
-0.101773
-0.101838
-0.101876
-0.10188
-0.101847
-0.101773
-0.101657
-0.101495
-0.101289
-0.101037
-0.100739
-0.100397
-0.100008
-0.0995719
-0.0990857
-0.0985482
-0.0979578
-0.0973123
-0.096609
-0.0958452
-0.095018
-0.094124
-0.0931591
-0.0921187
-0.0909972
-0.0897884
-0.0884852
-0.0870796
-0.0855629
-0.0839254
-0.0821571
-0.0802471
-0.0781851
-0.0759604
-0.0735629
-0.0709827
-0.0682119
-0.0652444
-0.0620785
-0.0587168
-0.0551686
-0.0514493
-0.0475827
-0.0435985
-0.0395348
-0.0354331
-0.0313418
-0.02731
-0.0233915
-0.0196337
-0.0160857
-0.0127835
-0.00976349
-0.00704315
-0.00464112
-0.00255418
-0.000786622
0.00067996
0.001849
0.00275124
0.00339562
0.00382414
0.00404638
0.00411165
0.00402395
0.0038375
0.00354571
0.0032075
0.00280082
0.00239046
0.00193335
0.00150268
0.00102918
0.000600267
0.000115108
-0.0831989
-0.0909659
-0.0949411
-0.0963628
-0.0967998
-0.097144
-0.0976522
-0.0982805
-0.0989156
-0.0994844
-0.099962
-0.100356
-0.100683
-0.100959
-0.101192
-0.101381
-0.101524
-0.101615
-0.101647
-0.101617
-0.10152
-0.101356
-0.101124
-0.100824
-0.100458
-0.100026
-0.0995312
-0.0989736
-0.0983539
-0.0976721
-0.0969279
-0.0961208
-0.0952496
-0.0943129
-0.0933088
-0.0922352
-0.0910896
-0.0898687
-0.0885689
-0.0871858
-0.0857148
-0.0841508
-0.0824882
-0.0807212
-0.0788441
-0.0768509
-0.074736
-0.0724942
-0.0701205
-0.0676107
-0.0649615
-0.0621712
-0.0592399
-0.0561712
-0.0529719
-0.049654
-0.0462336
-0.0427332
-0.03918
-0.035607
-0.0320505
-0.0285502
-0.0251448
-0.0218736
-0.0187713
-0.0158713
-0.0131982
-0.0107741
-0.00860924
-0.00671249
-0.00507781
-0.00370048
-0.00255968
-0.00164496
-0.000927997
-0.000396551
-1.41363e-05
0.000230531
0.00038012
0.000438112
0.000450785
0.000407186
0.00035945
0.000276863
0.000223351
0.000138489
0.000105098
1.65699e-05
-9.47312e-06
-0.000140605
-0.0730589
-0.0802292
-0.0855724
-0.0890759
-0.0912401
-0.0927181
-0.0939576
-0.0951387
-0.0962747
-0.0973204
-0.0982377
-0.0990161
-0.0996657
-0.100204
-0.100645
-0.100996
-0.101258
-0.101428
-0.101504
-0.101482
-0.101361
-0.101143
-0.100828
-0.10042
-0.0999222
-0.0993386
-0.0986729
-0.0979287
-0.0971089
-0.096216
-0.0952516
-0.0942169
-0.0931123
-0.0919377
-0.0906922
-0.0893745
-0.0879826
-0.0865143
-0.0849669
-0.0833375
-0.0816228
-0.0798197
-0.0779251
-0.0759359
-0.0738496
-0.071664
-0.0693778
-0.06699
-0.0645008
-0.0619112
-0.0592231
-0.0564404
-0.0535681
-0.0506135
-0.0475856
-0.0444965
-0.0413617
-0.0382013
-0.03504
-0.0319074
-0.0288358
-0.0258591
-0.0230091
-0.020314
-0.0177955
-0.015471
-0.013352
-0.0114479
-0.00976356
-0.00830188
-0.00705538
-0.00601113
-0.00514438
-0.00443503
-0.00385697
-0.00339485
-0.00302231
-0.00272615
-0.00247585
-0.00226477
-0.0020624
-0.00187725
-0.00167586
-0.00148575
-0.00125966
-0.00105616
-0.000800858
-0.000612069
-0.000357057
-0.000264453
-0.0679134
-0.0745429
-0.0800276
-0.0842649
-0.0873781
-0.0896762
-0.0914991
-0.0930853
-0.0945426
-0.095889
-0.0971042
-0.0981676
-0.0990727
-0.0998255
-0.100436
-0.100914
-0.101264
-0.101485
-0.101578
-0.10154
-0.101373
-0.10108
-0.100664
-0.100131
-0.0994865
-0.0987381
-0.0978918
-0.0969533
-0.0959281
-0.0948206
-0.0936348
-0.0923735
-0.0910385
-0.0896306
-0.0881499
-0.0865956
-0.0849665
-0.083261
-0.0814774
-0.079614
-0.0776691
-0.0756414
-0.07353
-0.0713347
-0.0690557
-0.0666944
-0.0642531
-0.0617353
-0.0591457
-0.0564902
-0.0537759
-0.0510112
-0.0482052
-0.0453675
-0.0425083
-0.0396393
-0.0367743
-0.0339301
-0.0311278
-0.0283935
-0.025757
-0.0232497
-0.0208994
-0.018726
-0.0167375
-0.0149318
-0.0133013
-0.0118414
-0.010552
-0.00943481
-0.00848424
-0.00768365
-0.00700444
-0.00641746
-0.00589752
-0.00543214
-0.00500959
-0.00462292
-0.0042561
-0.00390176
-0.00354341
-0.00318254
-0.0028044
-0.00242393
-0.00202111
-0.00163266
-0.00121791
-0.000866092
-0.000473946
-0.000273311
-0.0634718
-0.0697623
-0.075247
-0.0798321
-0.0835262
-0.0864625
-0.0888501
-0.0908877
-0.0927074
-0.0943675
-0.0958758
-0.0972189
-0.0983836
-0.0993649
-0.100166
-0.100791
-0.101247
-0.101534
-0.101655
-0.101611
-0.101404
-0.10104
-0.100526
-0.0998707
-0.0990832
-0.0981731
-0.0971495
-0.0960204
-0.0947936
-0.0934758
-0.0920733
-0.0905909
-0.0890319
-0.0873983
-0.0856909
-0.0839097
-0.082054
-0.0801229
-0.0781157
-0.0760316
-0.0738706
-0.0716332
-0.0693208
-0.0669357
-0.0644813
-0.0619621
-0.059384
-0.0567543
-0.0540823
-0.0513789
-0.0486564
-0.0459279
-0.0432063
-0.0405031
-0.0378291
-0.0351946
-0.0326105
-0.0300885
-0.0276425
-0.0252909
-0.0230589
-0.0209758
-0.0190677
-0.0173493
-0.0158167
-0.014446
-0.0132074
-0.0120815
-0.0110657
-0.0101645
-0.00937809
-0.00869686
-0.00809506
-0.00753939
-0.00700378
-0.00647896
-0.00596467
-0.00546691
-0.00498784
-0.00452855
-0.0040818
-0.00364437
-0.00320484
-0.00276371
-0.00231027
-0.00185799
-0.00139459
-0.000966922
-0.000533621
-0.000263325
-0.0599557
-0.066053
-0.0715306
-0.0763115
-0.0803731
-0.0837696
-0.086622
-0.0890751
-0.0912487
-0.0932141
-0.0949973
-0.0965959
-0.0979975
-0.0991913
-0.100172
-0.100941
-0.101498
-0.101847
-0.10199
-0.101929
-0.101671
-0.101223
-0.100596
-0.0998048
-0.0988619
-0.0977807
-0.0965724
-0.0952475
-0.0938158
-0.0922863
-0.0906672
-0.0889651
-0.0871851
-0.0853304
-0.083403
-0.0814037
-0.0793326
-0.0771895
-0.0749745
-0.0726881
-0.0703317
-0.0679078
-0.0654201
-0.0628738
-0.0602755
-0.057633
-0.0549555
-0.0522536
-0.0495399
-0.0468299
-0.0441413
-0.0414916
-0.0388962
-0.0363672
-0.0339137
-0.0315427
-0.0292598
-0.0270703
-0.0249781
-0.0229881
-0.0211158
-0.0193855
-0.0178198
-0.0164318
-0.0152153
-0.0141347
-0.0131478
-0.0122254
-0.0113601
-0.0105543
-0.00980499
-0.00911943
-0.00849635
-0.00791799
-0.00736513
-0.00683303
-0.00631288
-0.00579875
-0.00529046
-0.00478961
-0.00429534
-0.00380753
-0.00332377
-0.00284488
-0.00236687
-0.00189359
-0.00142174
-0.000973837
-0.000542584
-0.000254296
-0.0571392
-0.0631441
-0.0686261
-0.0735198
-0.0778046
-0.0815133
-0.0847225
-0.087531
-0.0900312
-0.0922889
-0.0943363
-0.0961785
-0.0978056
-0.0992036
-0.100361
-0.101272
-0.101934
-0.102345
-0.102509
-0.10243
-0.102115
-0.101576
-0.100829
-0.0998928
-0.0987878
-0.0975313
-0.0961376
-0.0946191
-0.0929876
-0.0912545
-0.0894295
-0.0875215
-0.085537
-0.0834809
-0.0813564
-0.0791654
-0.0769089
-0.0745878
-0.0722032
-0.0697568
-0.0672515
-0.0646915
-0.062083
-0.059434
-0.0567546
-0.0540561
-0.0513505
-0.0486497
-0.0459677
-0.0433223
-0.0407344
-0.0382224
-0.0358004
-0.0334771
-0.031257
-0.0291411
-0.0271289
-0.0252201
-0.0234154
-0.0217169
-0.0201286
-0.0186605
-0.0173246
-0.0161214
-0.0150362
-0.0140524
-0.0131518
-0.0123154
-0.0115328
-0.0108046
-0.0101255
-0.00947063
-0.00882128
-0.00817325
-0.00753713
-0.00692171
-0.00633551
-0.00578111
-0.00525866
-0.00476147
-0.0042802
-0.00380776
-0.00333818
-0.00286931
-0.00239902
-0.00192911
-0.0014622
-0.00101099
-0.000592037
-0.00025052
-0.0548291
-0.0608211
-0.066319
-0.0712789
-0.0757011
-0.0796227
-0.083104
-0.0862122
-0.0890111
-0.0915501
-0.0938578
-0.0959406
-0.0977902
-0.0993904
-0.100724
-0.101779
-0.102546
-0.103023
-0.103209
-0.103112
-0.102739
-0.102108
-0.101238
-0.100156
-0.0988889
-0.0974602
-0.0958885
-0.0941911
-0.092383
-0.0904778
-0.0884868
-0.0864195
-0.0842831
-0.0820829
-0.0798224
-0.0775041
-0.0751296
-0.0727006
-0.0702189
-0.0676873
-0.0651095
-0.0624911
-0.0598393
-0.0571637
-0.0544763
-0.0517913
-0.049123
-0.046483
-0.0438879
-0.041359
-0.0389144
-0.0365665
-0.0343215
-0.0321803
-0.0301404
-0.0281977
-0.0263473
-0.0245896
-0.0229344
-0.0213978
-0.0199931
-0.0187221
-0.0175755
-0.0165291
-0.0155244
-0.0145272
-0.0135346
-0.0125665
-0.0116591
-0.0108311
-0.0100792
-0.00939672
-0.00875875
-0.00814484
-0.00754574
-0.00696095
-0.00639278
-0.0058474
-0.00532381
-0.00481763
-0.00432431
-0.00384022
-0.00336259
-0.00289001
-0.0024215
-0.00195729
-0.00149929
-0.00105728
-0.000646801
-0.000255312
-0.0533631
-0.0593302
-0.0648039
-0.0697763
-0.0742721
-0.0783325
-0.0820062
-0.0853405
-0.0883778
-0.0911522
-0.0936834
-0.0959758
-0.0980196
-0.0997962
-0.101285
-0.102465
-0.103324
-0.103853
-0.104051
-0.103925
-0.103491
-0.102771
-0.101791
-0.100579
-0.0991615
-0.0975698
-0.0958333
-0.0939774
-0.0920232
-0.089987
-0.0878816
-0.085716
-0.0834967
-0.0812278
-0.0789117
-0.0765497
-0.0741428
-0.0716919
-0.0691984
-0.0666644
-0.0640934
-0.0614904
-0.0588623
-0.0562183
-0.0535697
-0.0509311
-0.0483198
-0.0457576
-0.0432665
-0.0408653
-0.0385682
-0.0363833
-0.0343103
-0.0323394
-0.0304536
-0.0286342
-0.0268661
-0.0251356
-0.0234477
-0.0218243
-0.0202951
-0.0188887
-0.0176183
-0.0164664
-0.0154112
-0.0144233
-0.0134856
-0.0125906
-0.011741
-0.0109452
-0.0102075
-0.00951682
-0.00885827
-0.00822186
-0.0076046
-0.00700792
-0.00643397
-0.0058831
-0.00535349
-0.00484195
-0.00434436
-0.00385701
-0.00337734
-0.00290434
-0.00243817
-0.00197972
-0.00153072
-0.00109669
-0.000684206
-0.000262871
-0.0524856
-0.0584758
-0.0639561
-0.0689534
-0.0735075
-0.0776616
-0.0814589
-0.0849427
-0.0881485
-0.0910976
-0.0937978
-0.0962445
-0.0984239
-0.100316
-0.1019
-0.103156
-0.104069
-0.104631
-0.104843
-0.104713
-0.104261
-0.10351
-0.102491
-0.101236
-0.0997773
-0.0981473
-0.0963749
-0.0944857
-0.0925014
-0.0904392
-0.0883125
-0.0861307
-0.0839003
-0.0816254
-0.0793083
-0.0769503
-0.0745521
-0.072114
-0.0696372
-0.0671232
-0.0645747
-0.061996
-0.0593929
-0.0567732
-0.0541472
-0.0515272
-0.0489281
-0.0463664
-0.0438594
-0.0414235
-0.039073
-0.0368179
-0.0346624
-0.0326047
-0.0306392
-0.0287568
-0.0269375
-0.0251816
-0.0234976
-0.0219027
-0.0204156
-0.0190484
-0.0178046
-0.016667
-0.0156046
-0.0145917
-0.0136184
-0.0126885
-0.0118136
-0.0110007
-0.0102485
-0.00954712
-0.00888221
-0.00824337
-0.00762633
-0.00703084
-0.00645789
-0.00590752
-0.00537752
-0.00486427
-0.00436395
-0.00387351
-0.00339109
-0.00291634
-0.00245027
-0.00199483
-0.00155184
-0.00112285
-0.000705979
-0.00027203
)
;

boundaryField
{
    fixedWalls
    {
        type            zeroGradient;
    }
    inflowWall
    {
        type            zeroGradient;
    }
    outflowWall
    {
        type            fixedValue;
        value           uniform 0;
    }
    frontAndBack
    {
        type            empty;
    }
}


// ************************************************************************* //
