/*--------------------------------*- C++ -*----------------------------------*\
| =========                 |                                                 |
| \\      /  F ield         | OpenFOAM: The Open Source CFD Toolbox           |
|  \\    /   O peration     | Version:  2306                                  |
|   \\  /    A nd           | Website:  www.openfoam.com                      |
|    \\/     M anipulation  |                                                 |
\*---------------------------------------------------------------------------*/
FoamFile
{
    version     2.0;
    format      ascii;
    arch        "LSB;label=32;scalar=64";
    class       volScalarField;
    location    "3.78";
    object      p;
}
// * * * * * * * * * * * * * * * * * * * * * * * * * * * * * * * * * * * * * //

dimensions      [0 2 -2 0 0 0 0];

internalField   nonuniform List<scalar> 
1900
(
0.0574623
0.0332376
0.0128421
-0.00250411
-0.0135314
-0.0240985
-0.0345553
-0.046742
-0.0593251
-0.0734182
0.0282017
0.0200022
0.00868315
-0.00287426
-0.0139059
-0.0241032
-0.0345495
-0.045079
-0.0565954
-0.0676665
0.0191118
0.0146203
0.00710267
-0.00226859
-0.0123563
-0.0223401
-0.0321245
-0.0416826
-0.0511159
-0.0602107
0.0134138
0.0103401
0.00468922
-0.00296075
-0.0118145
-0.0210575
-0.0302519
-0.0391697
-0.0477671
-0.0559293
0.0111936
0.00865814
0.00391932
-0.0027289
-0.0107078
-0.0193112
-0.0279858
-0.0364083
-0.044428
-0.0519551
0.0118317
0.00935123
0.00474117
-0.00172284
-0.0094598
-0.0177611
-0.0260677
-0.0340618
-0.0416188
-0.0487096
0.0152908
0.0123455
0.00706584
-1.50035e-05
-0.00807191
-0.0163542
-0.0243958
-0.0320191
-0.0392156
-0.0460197
0.021993
0.0176985
0.0108029
0.00233736
-0.00647777
-0.0148956
-0.0227201
-0.0300447
-0.0370185
-0.043703
0.0321364
0.0240386
0.0136053
0.00314875
-0.00615199
-0.0142553
-0.0216133
-0.0286483
-0.0355233
-0.0421978
0.0609878
0.038317
0.0186134
0.00455568
-0.00509466
-0.0127804
-0.0199974
-0.0272003
-0.0343386
-0.0412065
-0.0966725
-0.096706
-0.0967507
-0.0968045
-0.0968646
-0.0969306
-0.0970019
-0.0970776
-0.0971563
-0.0972366
-0.0973168
-0.0973954
-0.0974707
-0.0975411
-0.0976052
-0.0976613
-0.0977082
-0.0977446
-0.0977694
-0.0977817
-0.0977805
-0.0977653
-0.0977356
-0.0976911
-0.0976314
-0.0975565
-0.0974663
-0.0973609
-0.0972406
-0.0971057
-0.0969568
-0.0967948
-0.0966208
-0.0964362
-0.0962419
-0.0960379
-0.0958216
-0.0955869
-0.0953218
-0.0950075
-0.0946167
-0.094115
-0.0934619
-0.0926131
-0.0915212
-0.090134
-0.088391
-0.0862209
-0.0835417
-0.0802639
-0.0762946
-0.0715522
-0.065986
-0.0595765
-0.0523495
-0.0443777
-0.0357573
-0.0266224
-0.0171409
-0.00750901
0.0020809
0.0114274
0.0203402
0.028646
0.0361961
0.0428713
0.0485872
0.0532972
0.0569799
0.0596502
0.06134
0.062111
0.0620316
0.0611887
0.0596655
0.0575592
0.0549517
0.0519342
0.0485749
0.0449514
0.0411117
0.0371175
0.0329944
0.0287899
0.0245056
0.0201805
0.0157887
0.0113735
0.00687001
0.00235452
-0.096668
-0.0966996
-0.0967266
-0.096768
-0.0968191
-0.0968785
-0.0969447
-0.097016
-0.0970908
-0.0971677
-0.0972451
-0.0973212
-0.0973945
-0.0974633
-0.097526
-0.0975811
-0.0976271
-0.0976628
-0.0976869
-0.0976984
-0.0976965
-0.0976803
-0.0976494
-0.0976033
-0.0975416
-0.0974641
-0.0973707
-0.0972613
-0.097136
-0.0969948
-0.096838
-0.0966657
-0.0964781
-0.0962757
-0.0960584
-0.0958254
-0.0955747
-0.0953012
-0.0949963
-0.0946463
-0.0942319
-0.0937282
-0.0931036
-0.0923201
-0.0913321
-0.0900846
-0.08851
-0.0865248
-0.0840284
-0.0809088
-0.0770603
-0.0724154
-0.0669504
-0.0606509
-0.0535192
-0.045603
-0.0370076
-0.027877
-0.0183796
-0.008715
0.000914054
0.0103046
0.019257
0.027602
0.0351915
0.0418914
0.0476281
0.0523587
0.0560593
0.0587461
0.0604498
0.0612359
0.0611715
0.0603509
0.0588535
0.0567797
0.0542054
0.0512279
0.0479078
0.044331
0.0405353
0.0365934
0.0325173
0.0283695
0.0241345
0.0198702
0.0155312
0.0111771
0.00673522
0.00229629
-0.0965504
-0.0966317
-0.0966771
-0.0967305
-0.0967867
-0.0968481
-0.0969159
-0.096989
-0.097066
-0.0971455
-0.0972256
-0.0973049
-0.0973813
-0.0974533
-0.0975192
-0.0975773
-0.0976262
-0.0976645
-0.0976908
-0.097704
-0.0977032
-0.0976878
-0.097657
-0.0976105
-0.097548
-0.0974695
-0.0973748
-0.0972643
-0.097138
-0.0969961
-0.0968386
-0.0966654
-0.0964762
-0.0962707
-0.0960482
-0.0958073
-0.0955457
-0.0952599
-0.0949448
-0.0945933
-0.0941955
-0.0937359
-0.0931928
-0.0925326
-0.0917058
-0.0906483
-0.0892771
-0.0874918
-0.0851781
-0.0822267
-0.078544
-0.0740331
-0.0686228
-0.0623138
-0.0551441
-0.04719
-0.0385592
-0.0293983
-0.0198567
-0.0101849
-0.000562499
0.00881454
0.0177496
0.0260744
0.0336323
0.0403079
0.0460152
0.0507155
0.0543862
0.0570486
0.0587336
0.0595119
0.059449
0.0586424
0.0571689
0.0551337
0.0526086
0.0496947
0.046448
0.0429579
0.0392573
0.0354225
0.031461
0.0274376
0.0233346
0.0192092
0.0150183
0.0108174
0.00654286
0.00225955
-0.0966332
-0.0967066
-0.0967106
-0.0967363
-0.0967817
-0.0968437
-0.0969168
-0.0969973
-0.0970824
-0.0971703
-0.0972587
-0.0973457
-0.0974294
-0.0975079
-0.0975794
-0.0976424
-0.0976953
-0.0977365
-0.0977648
-0.0977792
-0.0977787
-0.0977627
-0.0977306
-0.0976821
-0.0976169
-0.0975351
-0.0974368
-0.0973224
-0.0971919
-0.0970458
-0.0968839
-0.0967058
-0.0965106
-0.0962971
-0.0960646
-0.0958127
-0.0955412
-0.0952498
-0.0949374
-0.0946008
-0.0942338
-0.0938274
-0.0933652
-0.0928143
-0.0921167
-0.0911962
-0.0899636
-0.0883154
-0.086124
-0.083265
-0.0796291
-0.0751722
-0.069798
-0.0635304
-0.0564015
-0.0484914
-0.0399161
-0.030822
-0.0213852
-0.0118212
-0.00233209
0.00689064
0.0156546
0.0237954
0.0311646
0.0376568
0.0431895
0.0477283
0.0512564
0.0538004
0.0553953
0.0561149
0.0560258
0.0552261
0.0537926
0.0518293
0.0494066
0.0466225
0.0435313
0.040218
0.0367155
0.0330942
0.0293639
0.0255824
0.0217374
0.0178771
0.0139685
0.010054
0.00608119
0.00209254
-0.0963064
-0.0965116
-0.0966022
-0.096706
-0.0968045
-0.0968976
-0.0969899
-0.0970848
-0.0971821
-0.0972801
-0.0973771
-0.0974713
-0.0975608
-0.0976438
-0.0977187
-0.0977837
-0.0978375
-0.0978785
-0.0979055
-0.0979173
-0.0979131
-0.0978925
-0.0978552
-0.0978009
-0.0977297
-0.0976417
-0.0975375
-0.0974176
-0.0972824
-0.0971323
-0.096967
-0.096786
-0.0965877
-0.0963702
-0.0961331
-0.0958767
-0.0956022
-0.095311
-0.0950043
-0.0946812
-0.0943365
-0.0939612
-0.0935417
-0.0930489
-0.0924066
-0.0915375
-0.0903385
-0.0887025
-0.0865151
-0.0836603
-0.0800374
-0.0755795
-0.070237
-0.0640185
-0.0569682
-0.0491723
-0.0407515
-0.0318598
-0.0226737
-0.0133933
-0.00422312
0.00464842
0.0130411
0.0208002
0.027791
0.0339181
0.039111
0.0433425
0.0466058
0.0489334
0.0503669
0.0509809
0.0508451
0.0500543
0.0486857
0.0468369
0.0445777
0.0419972
0.0391494
0.0361095
0.0329117
0.0296157
0.0262358
0.0228181
0.0193582
0.0158917
0.0123974
0.008904
0.00537605
0.00184255
-0.0971392
-0.0971613
-0.0970595
-0.097014
-0.0970242
-0.0970818
-0.0971694
-0.0972701
-0.0973729
-0.0974745
-0.097573
-0.0976665
-0.0977536
-0.0978328
-0.0979025
-0.0979615
-0.0980086
-0.0980423
-0.0980613
-0.0980648
-0.0980521
-0.0980229
-0.0979773
-0.0979152
-0.0978368
-0.097742
-0.0976318
-0.097507
-0.097368
-0.0972151
-0.097048
-0.0968656
-0.0966662
-0.0964467
-0.096209
-0.0959547
-0.0956838
-0.0953973
-0.0950963
-0.0947799
-0.0944414
-0.094064
-0.0936244
-0.0930913
-0.0924004
-0.0914688
-0.090198
-0.0884827
-0.0862118
-0.083281
-0.0796002
-0.0751118
-0.0697851
-0.063633
-0.0567084
-0.049105
-0.0409492
-0.032397
-0.0236243
-0.0148199
-0.00617512
0.0021318
0.00993831
0.0171054
0.0235177
0.0290941
0.0337819
0.0375645
0.0404487
0.0424726
0.0436863
0.044163
0.0439751
0.0432104
0.0419451
0.0402662
0.0382413
0.0359469
0.0334355
0.030769
0.0279821
0.0251217
0.0222052
0.0192664
0.0163074
0.0133516
0.0103884
0.00743461
0.00447096
0.00151443
-0.0958091
-0.0964574
-0.0966599
-0.0969165
-0.097132
-0.0972952
-0.0974174
-0.0975182
-0.0976108
-0.0976988
-0.0977825
-0.0978609
-0.0979327
-0.0979969
-0.0980521
-0.0980973
-0.0981317
-0.0981537
-0.0981619
-0.0981554
-0.0981335
-0.0980959
-0.0980427
-0.0979737
-0.097889
-0.0977881
-0.0976734
-0.0975457
-0.097405
-0.0972509
-0.0970833
-0.0969011
-0.0967026
-0.0964841
-0.096241
-0.0959752
-0.0956896
-0.0953839
-0.095056
-0.0947016
-0.094311
-0.0938674
-0.0933428
-0.0926981
-0.0918706
-0.09078
-0.089333
-0.0874323
-0.0849803
-0.0818897
-0.0780891
-0.0735355
-0.0682153
-0.0621536
-0.0554129
-0.0480942
-0.0403273
-0.032267
-0.0240822
-0.0159494
-0.00803971
-0.000510801
0.00650043
0.0128783
0.0185327
0.0234025
0.0274561
0.0306904
0.0331257
0.0348048
0.0357834
0.0361301
0.0359166
0.0352201
0.0341126
0.0326672
0.0309466
0.0290128
0.0269145
0.0246994
0.022401
0.0200533
0.0176756
0.0152897
0.0129031
0.0105283
0.00816363
0.0058159
0.00347861
0.00115964
-0.100526
-0.0991457
-0.0985172
-0.0980838
-0.0978573
-0.0977679
-0.0977559
-0.0977799
-0.0978181
-0.0978632
-0.0979119
-0.0979611
-0.0980088
-0.0980532
-0.0980926
-0.098125
-0.0981491
-0.0981615
-0.0981608
-0.0981467
-0.098119
-0.0980776
-0.098022
-0.0979515
-0.0978658
-0.0977635
-0.0976426
-0.0975057
-0.0973544
-0.0971876
-0.0970033
-0.0967994
-0.0965732
-0.0963216
-0.0960418
-0.0957326
-0.0953929
-0.09502
-0.0946087
-0.0941507
-0.0936324
-0.0930332
-0.0923214
-0.0914539
-0.0903727
-0.0890061
-0.0872724
-0.0850887
-0.0823757
-0.0790676
-0.0751166
-0.0704994
-0.0652208
-0.0593196
-0.0528668
-0.0459653
-0.0387419
-0.031344
-0.0239261
-0.0166451
-0.00964822
-0.00306698
0.00299407
0.00844858
0.013236
0.0173183
0.0206849
0.0233446
0.0253279
0.0266775
0.0274492
0.0277033
0.027506
0.0269217
0.0260153
0.0248457
0.0234687
0.0219316
0.0202782
0.0185428
0.0167571
0.014943
0.0131213
0.0113032
0.0095007
0.00771701
0.00595802
0.00422162
0.00251009
0.00081956
-0.0946783
-0.0957699
-0.0966087
-0.0972212
-0.0975379
-0.097656
-0.0976899
-0.0977023
-0.0977175
-0.0977471
-0.0977859
-0.0978265
-0.097867
-0.097906
-0.0979418
-0.0979726
-0.0979976
-0.0980163
-0.0980225
-0.0980119
-0.0979835
-0.0979375
-0.0978752
-0.0977955
-0.0976962
-0.097575
-0.0974309
-0.097264
-0.0970742
-0.0968598
-0.0966185
-0.0963471
-0.0960421
-0.0956995
-0.0953152
-0.094885
-0.0944049
-0.0938696
-0.0932714
-0.0925988
-0.0918352
-0.090958
-0.0899371
-0.0887326
-0.0872947
-0.0855651
-0.0834801
-0.0809765
-0.0779966
-0.0744941
-0.0704399
-0.0658316
-0.0606926
-0.0550748
-0.0490547
-0.0427331
-0.0362268
-0.0296656
-0.0231796
-0.0168966
-0.0109302
-0.00538177
-0.00032902
0.00416987
0.00808214
0.0113904
0.0140996
0.0162257
0.0178026
0.018869
0.0194759
0.019673
0.0195185
0.0190644
0.0183683
0.0174761
0.0164372
0.015286
0.0140613
0.0127854
0.011488
0.0101801
0.00888396
0.00760089
0.00634762
0.00511799
0.00392598
0.00275981
0.00163226
0.000525952
-0.117378
-0.102444
-0.100516
-0.0990394
-0.0981242
-0.0976954
-0.0975206
-0.0974575
-0.0974363
-0.0974379
-0.0974742
-0.0975347
-0.0975989
-0.0976586
-0.0977118
-0.0977573
-0.0977925
-0.0978138
-0.0978157
-0.0977934
-0.0977456
-0.0976728
-0.0975751
-0.0974505
-0.0972957
-0.0971078
-0.0968844
-0.0966238
-0.0963241
-0.0959832
-0.0955986
-0.0951676
-0.0946862
-0.0941501
-0.0935548
-0.0928956
-0.092167
-0.091363
-0.0904749
-0.0894912
-0.0883956
-0.0871657
-0.0857716
-0.0841793
-0.0823499
-0.0802416
-0.0778109
-0.075017
-0.0718261
-0.0682162
-0.064181
-0.0597342
-0.0549095
-0.0497605
-0.0443578
-0.0387885
-0.0331501
-0.0275474
-0.0220824
-0.0168525
-0.0119402
-0.00741805
-0.00333952
0.00025956
0.00336568
0.00597412
0.00809707
0.00975212
0.010973
0.0117934
0.0122592
0.0124104
0.0122982
0.011964
0.011459
0.0108185
0.0100866
0.00928655
0.00845294
0.00759667
0.00674527
0.0058989
0.00508106
0.00428284
0.00352669
0.00279561
0.00211337
0.00145524
0.000847957
0.000256055
-0.0849021
-0.0913718
-0.0938803
-0.0947199
-0.0951629
-0.0955601
-0.095927
-0.0962346
-0.0965002
-0.0967313
-0.0969293
-0.0970966
-0.0972364
-0.097352
-0.0974457
-0.0975169
-0.0975625
-0.0975779
-0.0975581
-0.0974988
-0.0973973
-0.0972522
-0.0970625
-0.0968267
-0.0965425
-0.0962079
-0.095821
-0.0953801
-0.0948838
-0.0943297
-0.0937144
-0.093034
-0.0922849
-0.0914638
-0.0905672
-0.089591
-0.0885303
-0.0873792
-0.0861303
-0.0847733
-0.0832951
-0.0816787
-0.0799035
-0.0779464
-0.0757822
-0.0733849
-0.0707295
-0.0677945
-0.0645648
-0.0610349
-0.0572105
-0.0531111
-0.0487698
-0.0442329
-0.0395573
-0.0348119
-0.0300736
-0.0254231
-0.0209397
-0.0166975
-0.0127586
-0.00917203
-0.00596872
-0.00316728
-0.000771139
0.0012222
0.00282759
0.00406386
0.00496361
0.00555869
0.0058911
0.00599569
0.0059171
0.00568874
0.00535425
0.00494045
0.00448512
0.00400327
0.00352441
0.00305005
0.00260354
0.0021748
0.00178645
0.00141972
0.00110208
0.000805542
0.000564089
0.000337012
0.000167613
-6.56002e-07
-0.0789209
-0.086702
-0.0906869
-0.0921127
-0.0925459
-0.0928797
-0.0933728
-0.0939823
-0.0945943
-0.0951339
-0.0955792
-0.0959392
-0.096232
-0.0964721
-0.0966662
-0.0968141
-0.0969116
-0.0969523
-0.0969302
-0.0968402
-0.096679
-0.0964445
-0.0961361
-0.0957535
-0.0952967
-0.0947657
-0.0941605
-0.0934812
-0.0927275
-0.0918989
-0.0909941
-0.0900118
-0.0889505
-0.0878085
-0.0865841
-0.0852748
-0.0838775
-0.0823883
-0.0808022
-0.0791127
-0.0773116
-0.0753891
-0.0733332
-0.0711306
-0.0687667
-0.0662265
-0.0634966
-0.0605674
-0.0574339
-0.0540984
-0.0505712
-0.0468726
-0.0430333
-0.0390947
-0.0351074
-0.0311268
-0.0272106
-0.0234181
-0.0198077
-0.0164333
-0.013339
-0.0105575
-0.00810866
-0.00600168
-0.00423207
-0.00278585
-0.00164215
-0.000778744
-0.000165262
0.000229623
0.000445465
0.000517279
0.0004844
0.000374107
0.000217878
3.3125e-05
-0.000153236
-0.000332226
-0.00048247
-0.000607896
-0.000692774
-0.000753129
-0.000772433
-0.000774779
-0.000732849
-0.000680623
-0.000577835
-0.000476632
-0.000318151
-0.000180335
-0.0686885
-0.0758887
-0.0812327
-0.0847144
-0.0868473
-0.0882921
-0.0894974
-0.0906417
-0.0917367
-0.092737
-0.093605
-0.0943312
-0.0949262
-0.0954067
-0.0957859
-0.0960701
-0.0962594
-0.0963507
-0.0963399
-0.0962236
-0.0959998
-0.0956682
-0.0952299
-0.0946871
-0.0940425
-0.0932992
-0.09246
-0.0915278
-0.0905051
-0.0893942
-0.0881966
-0.0869135
-0.0855456
-0.0840929
-0.0825553
-0.0809321
-0.0792221
-0.0774236
-0.0755345
-0.073552
-0.0714725
-0.0692922
-0.0670063
-0.0646101
-0.0620984
-0.0594668
-0.0567116
-0.0538305
-0.0508245
-0.0476988
-0.0444645
-0.04114
-0.0377526
-0.0343399
-0.0309474
-0.0276249
-0.0244216
-0.0213822
-0.0185437
-0.0159343
-0.0135756
-0.0114868
-0.00968497
-0.00817831
-0.0069549
-0.00598311
-0.00522568
-0.00465277
-0.00424001
-0.00396382
-0.00379134
-0.00368654
-0.0036142
-0.00355379
-0.00349155
-0.00342426
-0.00334258
-0.00324432
-0.00311855
-0.00296875
-0.00278652
-0.00258357
-0.00234871
-0.00210087
-0.00182147
-0.00153994
-0.00122206
-0.000916248
-0.00056125
-0.000244926
-0.0634393
-0.0700587
-0.0755277
-0.0797404
-0.0828201
-0.0850776
-0.0868546
-0.0883899
-0.0897915
-0.0910768
-0.092226
-0.0932185
-0.094048
-0.0947202
-0.0952449
-0.09563
-0.0958789
-0.0959913
-0.0959651
-0.0957985
-0.0954908
-0.0950434
-0.0944594
-0.0937431
-0.0929
-0.0919357
-0.0908561
-0.0896669
-0.0883738
-0.0869817
-0.0854948
-0.0839166
-0.0822496
-0.0804955
-0.0786559
-0.0767315
-0.0747233
-0.0726322
-0.070459
-0.0682046
-0.0658703
-0.0634575
-0.0609682
-0.0584049
-0.0557709
-0.0530702
-0.0503069
-0.0474858
-0.0446123
-0.0416937
-0.0387394
-0.0357636
-0.0327874
-0.0298425
-0.0269717
-0.0242265
-0.021657
-0.0193002
-0.0171703
-0.0152594
-0.0135513
-0.0120455
-0.010763
-0.00972425
-0.00891813
-0.00829533
-0.00778986
-0.00735909
-0.00699335
-0.00669524
-0.00645445
-0.00624422
-0.00603252
-0.0057987
-0.00553465
-0.00524586
-0.00494048
-0.00462828
-0.00431041
-0.00398907
-0.00365873
-0.00332177
-0.00297143
-0.00261488
-0.00224235
-0.00186773
-0.00147166
-0.00108183
-0.000656097
-0.00025942
-0.0589064
-0.0651749
-0.0706331
-0.0751847
-0.0788356
-0.081719
-0.0840452
-0.0860147
-0.0877604
-0.0893409
-0.090764
-0.0920162
-0.0930839
-0.093962
-0.0946522
-0.0951592
-0.0954866
-0.0956357
-0.0956064
-0.0953989
-0.095015
-0.0944583
-0.0937345
-0.0928505
-0.0918144
-0.0906346
-0.0893198
-0.0878791
-0.0863212
-0.0846543
-0.0828854
-0.0810203
-0.0790634
-0.0770184
-0.0748882
-0.0726758
-0.070384
-0.0680163
-0.065577
-0.0630711
-0.0605046
-0.0578842
-0.0552178
-0.0525144
-0.0497846
-0.04704
-0.0442932
-0.0415564
-0.0388402
-0.036153
-0.0335019
-0.0308942
-0.0283401
-0.025857
-0.0234767
-0.0212516
-0.0192411
-0.017486
-0.0159806
-0.0146696
-0.0134874
-0.0124108
-0.0114657
-0.0106929
-0.0101019
-0.00964373
-0.00923338
-0.00880968
-0.00836629
-0.00793208
-0.00753135
-0.00716541
-0.00682108
-0.00648604
-0.00614695
-0.00579551
-0.00543042
-0.00505645
-0.00467703
-0.00429524
-0.00391035
-0.00352389
-0.00313338
-0.00274098
-0.00234222
-0.00194137
-0.00152977
-0.00111718
-0.000681249
-0.000257035
-0.0553146
-0.061379
-0.0668162
-0.0715485
-0.0755521
-0.0788809
-0.0816564
-0.0840244
-0.086106
-0.0879733
-0.0896524
-0.0911409
-0.0924258
-0.0934954
-0.0943438
-0.0949697
-0.0953736
-0.0955561
-0.0955181
-0.0952612
-0.09479
-0.0941119
-0.0932367
-0.092175
-0.0909381
-0.089537
-0.0879837
-0.0862901
-0.0844679
-0.0825281
-0.0804808
-0.0783343
-0.0760955
-0.0737703
-0.0713635
-0.06888
-0.0663251
-0.0637051
-0.061028
-0.0583033
-0.0555426
-0.0527586
-0.0499651
-0.0471758
-0.044406
-0.0416741
-0.0390012
-0.036407
-0.0339047
-0.0315003
-0.0291949
-0.0269881
-0.0248766
-0.022858
-0.020939
-0.0191577
-0.0175761
-0.0162523
-0.0151781
-0.0142679
-0.0134305
-0.0126248
-0.0118636
-0.0111651
-0.0105602
-0.0100568
-0.00961296
-0.00918586
-0.00877058
-0.00836748
-0.00796344
-0.00755115
-0.00713056
-0.00670385
-0.00627724
-0.00585877
-0.0054524
-0.00505657
-0.00466924
-0.00428767
-0.00390748
-0.00352595
-0.00314039
-0.00275067
-0.00235454
-0.00195289
-0.00154225
-0.0011244
-0.000692103
-0.000261784
-0.0524294
-0.0583889
-0.0638164
-0.0686462
-0.0728578
-0.0764837
-0.0796009
-0.0823081
-0.0846992
-0.0868405
-0.0887652
-0.0904787
-0.0919705
-0.0932256
-0.0942312
-0.0949789
-0.0954643
-0.0956852
-0.0956414
-0.0953352
-0.0947733
-0.0939678
-0.0929348
-0.0916906
-0.0902505
-0.0886293
-0.0868422
-0.0849041
-0.0828301
-0.0806344
-0.07833
-0.0759281
-0.0734384
-0.0708689
-0.068227
-0.0655197
-0.0627549
-0.0599419
-0.0570921
-0.0542198
-0.0513425
-0.04848
-0.045653
-0.0428794
-0.0401717
-0.0375498
-0.03504
-0.0326628
-0.0304263
-0.0283257
-0.02635
-0.0244933
-0.022747
-0.0211105
-0.0195881
-0.0181769
-0.0169123
-0.0158155
-0.0148745
-0.0140586
-0.0133317
-0.0126757
-0.0120921
-0.0115931
-0.0111079
-0.0105712
-0.00997646
-0.00937416
-0.00881012
-0.00830017
-0.00784808
-0.00743781
-0.00704538
-0.00665563
-0.0062631
-0.00586757
-0.00547093
-0.00507786
-0.00468887
-0.00430257
-0.00391697
-0.00353052
-0.00314149
-0.00274859
-0.00235063
-0.00194712
-0.00153611
-0.00111806
-0.000693503
-0.000258042
-0.0500584
-0.0559933
-0.0614237
-0.0663053
-0.0706386
-0.0744619
-0.0778353
-0.0808266
-0.0834998
-0.0859052
-0.0880724
-0.0900091
-0.0917066
-0.0931477
-0.094314
-0.0951903
-0.0957656
-0.0960338
-0.095993
-0.0956463
-0.095002
-0.0940754
-0.0928897
-0.0914682
-0.0898334
-0.088007
-0.0860098
-0.0838615
-0.0815808
-0.0791848
-0.0766884
-0.0741047
-0.0714449
-0.0687184
-0.065934
-0.0631003
-0.0602267
-0.057324
-0.0544057
-0.0514884
-0.0485927
-0.045743
-0.0429663
-0.0402866
-0.037719
-0.0352846
-0.0330008
-0.0308722
-0.0288894
-0.0270319
-0.0252717
-0.023591
-0.0220001
-0.0205363
-0.0192417
-0.0181526
-0.0172554
-0.0164771
-0.0156729
-0.0147825
-0.0138293
-0.0129041
-0.0121092
-0.0114449
-0.0108847
-0.0103735
-0.00986645
-0.00935868
-0.00886056
-0.00838836
-0.00794605
-0.00752277
-0.0071083
-0.00669724
-0.00628883
-0.00588459
-0.00548535
-0.0050903
-0.00469897
-0.00431012
-0.00392202
-0.00353304
-0.00314171
-0.00274691
-0.00234751
-0.00194238
-0.00153023
-0.00111295
-0.000693581
-0.000253539
-0.048543
-0.0544438
-0.0598403
-0.0647243
-0.06912
-0.0730685
-0.0766201
-0.0798243
-0.0827235
-0.0853523
-0.087731
-0.0898637
-0.0917409
-0.0933443
-0.0946521
-0.0956431
-0.0963003
-0.0966129
-0.0965773
-0.0961979
-0.0954868
-0.0944621
-0.0931456
-0.0915663
-0.0897569
-0.0877502
-0.0855765
-0.0832631
-0.0808333
-0.0783068
-0.0756999
-0.0730256
-0.0702946
-0.0675155
-0.0646962
-0.0618444
-0.0589684
-0.0560779
-0.0531852
-0.050306
-0.0474604
-0.0446728
-0.0419741
-0.0393976
-0.0369823
-0.0347553
-0.0327258
-0.0308799
-0.0291801
-0.0275708
-0.025998
-0.0244111
-0.0228021
-0.0212072
-0.0196975
-0.0183504
-0.0172093
-0.0162289
-0.0153543
-0.0145201
-0.0137147
-0.0129504
-0.0122489
-0.0116284
-0.0110608
-0.0105122
-0.00996747
-0.00943085
-0.00891522
-0.00842929
-0.00797227
-0.00753827
-0.00711912
-0.00670831
-0.00630228
-0.00589982
-0.00550095
-0.00510565
-0.0047133
-0.0043228
-0.00393276
-0.00354174
-0.00314845
-0.00275175
-0.00235062
-0.00194391
-0.00153091
-0.00111371
-0.000694433
-0.000251961
-0.0476379
-0.0535567
-0.0589543
-0.063857
-0.0683048
-0.0723409
-0.0760098
-0.0793555
-0.0824158
-0.0852135
-0.087757
-0.0900423
-0.0920558
-0.0937775
-0.0951847
-0.0962558
-0.0969732
-0.0973258
-0.0973109
-0.0969346
-0.0962118
-0.0951653
-0.0938237
-0.0922189
-0.0903845
-0.0883537
-0.0861579
-0.0838254
-0.0813809
-0.0788449
-0.076234
-0.0735618
-0.0708388
-0.0680739
-0.0652745
-0.0624475
-0.0596004
-0.0567415
-0.0538814
-0.0510333
-0.048214
-0.0454443
-0.0427491
-0.0401563
-0.0376928
-0.0353802
-0.0332285
-0.0312343
-0.029381
-0.0276453
-0.0259628
-0.0243179
-0.0227123
-0.0211779
-0.0197675
-0.0185216
-0.017447
-0.0164983
-0.0156036
-0.0147242
-0.0138614
-0.0130464
-0.0123124
-0.0116597
-0.0110685
-0.0105089
-0.00996601
-0.00943977
-0.00893609
-0.00845836
-0.00800478
-0.00756965
-0.00714693
-0.00673245
-0.00632407
-0.00592087
-0.00552227
-0.00512757
-0.00473579
-0.00434567
-0.0039558
-0.00356477
-0.0031713
-0.00277423
-0.00237256
-0.00196537
-0.00155196
-0.00113264
-0.000706896
-0.000257684
)
;

boundaryField
{
    fixedWalls
    {
        type            zeroGradient;
    }
    inflowWall
    {
        type            zeroGradient;
    }
    outflowWall
    {
        type            fixedValue;
        value           uniform 0;
    }
    frontAndBack
    {
        type            empty;
    }
}


// ************************************************************************* //
