/*--------------------------------*- C++ -*----------------------------------*\
| =========                 |                                                 |
| \\      /  F ield         | OpenFOAM: The Open Source CFD Toolbox           |
|  \\    /   O peration     | Version:  2306                                  |
|   \\  /    A nd           | Website:  www.openfoam.com                      |
|    \\/     M anipulation  |                                                 |
\*---------------------------------------------------------------------------*/
FoamFile
{
    version     2.0;
    format      ascii;
    arch        "LSB;label=32;scalar=64";
    class       volScalarField;
    location    "4.73";
    object      p;
}
// * * * * * * * * * * * * * * * * * * * * * * * * * * * * * * * * * * * * * //

dimensions      [0 2 -2 0 0 0 0];

internalField   nonuniform List<scalar> 
1900
(
0.0557397
0.0315189
0.0111273
-0.00421277
-0.015232
-0.0257862
-0.036226
-0.0483881
-0.0609395
-0.0749894
0.0264788
0.0182805
0.00696502
-0.00458714
-0.015611
-0.0257979
-0.0362296
-0.0467412
-0.0582356
-0.069287
0.0173847
0.0128943
0.00537927
-0.00398817
-0.0140708
-0.0240485
-0.0338261
-0.0433767
-0.0528014
-0.0618838
0.0116824
0.00860922
0.00295982
-0.0046879
-0.0135386
-0.0227777
-0.0319673
-0.0408796
-0.0494707
-0.0576288
0.00945667
0.00692138
0.00218288
-0.00446492
-0.0124433
-0.0210462
-0.0297202
-0.0381429
-0.0461649
-0.0536975
0.0100893
0.00760851
0.00299769
-0.00346749
-0.0112062
-0.01951
-0.0278202
-0.0358197
-0.0433846
-0.0504859
0.0135434
0.0105972
0.0053158
-0.00176772
-0.0098285
-0.0181161
-0.0261649
-0.0337977
-0.0410062
-0.0478257
0.0202411
0.0159454
0.00904729
0.000577812
-0.00824299
-0.0166685
-0.0245031
-0.0318405
-0.0388303
-0.0455347
0.0303809
0.0222815
0.011845
0.00138345
-0.00792444
-0.0160373
-0.0234075
-0.030458
-0.0373523
-0.0440505
0.0592306
0.0365579
0.0168506
0.00278722
-0.00687104
-0.0145674
-0.0217979
-0.0290179
-0.0361774
-0.043071
-0.0981791
-0.0982126
-0.0982574
-0.0983116
-0.0983718
-0.0984379
-0.0985094
-0.0985851
-0.0986637
-0.0987436
-0.0988232
-0.0989008
-0.0989746
-0.0990428
-0.0991037
-0.0991557
-0.0991973
-0.0992269
-0.0992431
-0.0992448
-0.0992308
-0.0992003
-0.0991524
-0.0990865
-0.0990021
-0.0988988
-0.0987763
-0.0986344
-0.0984728
-0.0982913
-0.0980896
-0.0978674
-0.0976243
-0.0973599
-0.0970733
-0.0967638
-0.0964296
-0.0960681
-0.0956747
-0.0952423
-0.0947601
-0.0942126
-0.0935788
-0.0928322
-0.0919406
-0.0908678
-0.0895738
-0.0880157
-0.0861459
-0.0839104
-0.081249
-0.078096
-0.0743851
-0.0700563
-0.065062
-0.0593757
-0.0530005
-0.0459889
-0.0384032
-0.0303403
-0.0219251
-0.0133087
-0.00465215
0.00387664
0.0121115
0.0198976
0.0270921
0.0335805
0.0392643
0.0440871
0.0480031
0.0510093
0.0531067
0.0543374
0.0547356
0.0543741
0.0533046
0.0516149
0.0493578
0.0466232
0.0434528
0.0399313
0.0360801
0.031976
0.0276123
0.0230632
0.0182809
0.0133538
0.0081603
0.00286677
-0.0981746
-0.0982062
-0.0982333
-0.0982748
-0.0983259
-0.0983854
-0.0984515
-0.0985227
-0.0985974
-0.098674
-0.0987508
-0.098826
-0.0988978
-0.0989645
-0.0990243
-0.0990754
-0.0991164
-0.0991455
-0.0991615
-0.099163
-0.0991489
-0.0991181
-0.0990699
-0.0990034
-0.0989181
-0.0988135
-0.0986892
-0.0985449
-0.0983802
-0.0981949
-0.0979885
-0.0977605
-0.0975104
-0.0972372
-0.0969399
-0.096617
-0.0962667
-0.0958859
-0.0954702
-0.0950132
-0.0945059
-0.0939357
-0.0932863
-0.0925366
-0.0916606
-0.0906267
-0.0893979
-0.0879321
-0.0861795
-0.0840796
-0.0815615
-0.0785467
-0.0749546
-0.0707197
-0.0658147
-0.0602287
-0.0539559
-0.0470107
-0.0394633
-0.0314187
-0.023004
-0.0143739
-0.0056937
0.00286716
0.0111316
0.0189475
0.0261702
0.0326841
0.0383825
0.043222
0.0471511
0.0501712
0.0522793
0.0535234
0.0539328
0.053588
0.0525335
0.0508671
0.0486318
0.0459303
0.0427904
0.0393126
0.0354994
0.0314487
0.0271299
0.0226395
0.0179061
0.0130402
0.00793317
0.00274247
-0.0980571
-0.0981383
-0.0981839
-0.0982373
-0.0982935
-0.0983549
-0.0984227
-0.0984958
-0.0985728
-0.0986521
-0.0987319
-0.0988104
-0.0988857
-0.0989559
-0.0990192
-0.0990739
-0.0991181
-0.0991504
-0.0991692
-0.0991731
-0.0991609
-0.0991316
-0.0990843
-0.0990183
-0.0989329
-0.0988278
-0.0987026
-0.0985571
-0.0983911
-0.0982045
-0.0979972
-0.0977687
-0.0975186
-0.0972457
-0.0969489
-0.0966267
-0.0962768
-0.0958959
-0.0954798
-0.0950223
-0.0945161
-0.0939519
-0.0933181
-0.0926
-0.0917785
-0.0908259
-0.089704
-0.0883673
-0.0867607
-0.0848135
-0.0824427
-0.0795706
-0.0761235
-0.07202
-0.0671932
-0.0616268
-0.0553371
-0.0483711
-0.0408003
-0.0327336
-0.0242908
-0.0156424
-0.00696506
0.00158494
0.00983367
0.0176333
0.0248301
0.0313181
0.03699
0.0417999
0.0456982
0.0486909
0.0507745
0.0520025
0.0524028
0.0520613
0.0510199
0.0493808
0.0471838
0.0445351
0.0414596
0.0380602
0.0343387
0.0303921
0.026194
0.0218363
0.0172628
0.0125677
0.00767131
0.00268106
-0.098139
-0.0982128
-0.0982171
-0.098243
-0.0982887
-0.0983508
-0.0984241
-0.0985048
-0.0985902
-0.0986781
-0.0987664
-0.0988529
-0.0989356
-0.0990126
-0.0990818
-0.0991416
-0.0991901
-0.0992257
-0.0992471
-0.0992528
-0.0992416
-0.0992124
-0.0991646
-0.0990972
-0.0990099
-0.0989021
-0.0987736
-0.0986244
-0.0984545
-0.098264
-0.0980531
-0.0978217
-0.0975691
-0.0972944
-0.096996
-0.0966723
-0.0963214
-0.0959404
-0.095526
-0.0950734
-0.0945761
-0.0940269
-0.0934182
-0.0927398
-0.0919755
-0.091099
-0.090067
-0.0888269
-0.0873312
-0.0854993
-0.0832356
-0.0804475
-0.0770489
-0.0729869
-0.0681955
-0.0626677
-0.0564125
-0.0494809
-0.0419507
-0.0339347
-0.0255665
-0.0170074
-0.00843314
-6.53375e-06
0.00810158
0.0157458
0.0227801
0.0291031
0.0346168
0.039276
0.0430378
0.0459113
0.0478991
0.0490559
0.049415
0.0490609
0.0480399
0.04645
0.0443352
0.0417949
0.0388595
0.0356225
0.032094
0.0283587
0.024404
0.0203064
0.0160304
0.0116478
0.00710091
0.00246245
-0.0978131
-0.0980185
-0.0981093
-0.0982134
-0.0983122
-0.0984055
-0.0984981
-0.0985933
-0.0986909
-0.098789
-0.098886
-0.0989798
-0.0990685
-0.0991501
-0.0992228
-0.0992849
-0.0993347
-0.0993707
-0.0993914
-0.0993954
-0.0993815
-0.0993488
-0.0992966
-0.0992244
-0.0991317
-0.0990182
-0.0988838
-0.0987288
-0.0985535
-0.0983585
-0.098144
-0.0979102
-0.0976567
-0.0973819
-0.0970837
-0.0967609
-0.0964119
-0.0960342
-0.0956246
-0.0951792
-0.0946921
-0.0941563
-0.093568
-0.0929185
-0.0921885
-0.0913585
-0.0903707
-0.0891743
-0.0876934
-0.0858691
-0.0836077
-0.0808217
-0.077427
-0.0733646
-0.068587
-0.0630866
-0.0568813
-0.0500278
-0.0426098
-0.0347437
-0.026567
-0.0182362
-0.00992071
-0.00178378
0.00601307
0.0133298
0.0200346
0.0260314
0.0312366
0.035609
0.0391179
0.041775
0.0435933
0.0446265
0.0449162
0.0445417
0.0435557
0.0420471
0.0400662
0.0377002
0.034987
0.0320057
0.0287768
0.0253685
0.0217824
0.0180771
0.0142357
0.0103101
0.00626727
0.00216104
-0.0986447
-0.0986674
-0.0985663
-0.0985215
-0.0985321
-0.09859
-0.0986779
-0.0987789
-0.098882
-0.0989837
-0.0990822
-0.0991755
-0.0992619
-0.09934
-0.099408
-0.0994645
-0.0995081
-0.0995374
-0.0995511
-0.0995476
-0.0995262
-0.0994858
-0.0994261
-0.0993466
-0.099247
-0.099127
-0.0989864
-0.0988259
-0.0986459
-0.0984471
-0.0982298
-0.0979943
-0.0977399
-0.0974649
-0.0971659
-0.0968454
-0.0965011
-0.0961289
-0.0957255
-0.0952873
-0.0948088
-0.0942816
-0.0936931
-0.093034
-0.0922879
-0.0914257
-0.0903994
-0.0891539
-0.0876211
-0.0857307
-0.0833972
-0.0805409
-0.0770864
-0.0729831
-0.0681974
-0.0627286
-0.0566033
-0.0498845
-0.0426621
-0.0350554
-0.0272015
-0.0192533
-0.0113691
-0.00370387
0.003596
0.0104013
0.0165987
0.0221022
0.0268462
0.0307977
0.0339414
0.0362931
0.0378778
0.0387476
0.0389524
0.038564
0.0376407
0.0362597
0.0344756
0.0323612
0.0299598
0.0273341
0.0245125
0.0215462
0.0184478
0.0152582
0.0119757
0.00863527
0.00522434
0.00177853
-0.097319
-0.0979652
-0.0981681
-0.0984246
-0.09864
-0.098803
-0.0989252
-0.0990262
-0.0991191
-0.0992074
-0.0992914
-0.0993698
-0.0994413
-0.0995047
-0.0995586
-0.0996017
-0.099633
-0.0996511
-0.0996544
-0.0996416
-0.0996115
-0.0995633
-0.0994964
-0.0994104
-0.0993049
-0.0991793
-0.0990335
-0.0988694
-0.0986872
-0.0984868
-0.0982686
-0.0980328
-0.0977787
-0.097505
-0.0972069
-0.0968788
-0.0965232
-0.0961382
-0.0957186
-0.0952587
-0.0947511
-0.0941873
-0.0935556
-0.0928418
-0.0920231
-0.0910691
-0.089933
-0.0885597
-0.0868836
-0.0848376
-0.0823487
-0.0793497
-0.0757811
-0.0716039
-0.066799
-0.0613772
-0.0553753
-0.0488638
-0.0419367
-0.0347139
-0.0273285
-0.019926
-0.0126504
-0.00564139
0.000976676
0.00709306
0.0126175
0.0174802
0.0216362
0.0250644
0.0277655
0.0297602
0.0310841
0.031786
0.0319208
0.0315508
0.0307363
0.0295409
0.0280203
0.0262313
0.0242193
0.0220308
0.0196985
0.0172575
0.0147277
0.0121348
0.00948787
0.00680641
0.00409325
0.00136842
-0.10203
-0.100651
-0.100023
-0.0995892
-0.0993626
-0.0992732
-0.0992614
-0.099286
-0.099325
-0.0993708
-0.0994203
-0.09947
-0.0995178
-0.0995619
-0.0996002
-0.0996308
-0.099652
-0.0996614
-0.0996561
-0.0996355
-0.0995992
-0.0995462
-0.0994761
-0.0993885
-0.0992823
-0.0991561
-0.0990079
-0.0988369
-0.0986464
-0.0984368
-0.098207
-0.097956
-0.0976822
-0.0973831
-0.0970554
-0.0966957
-0.0963014
-0.0958688
-0.0953919
-0.0948632
-0.0942737
-0.0936126
-0.0928653
-0.0920139
-0.0910336
-0.0898924
-0.0885474
-0.0869481
-0.0850369
-0.0827554
-0.080045
-0.0768552
-0.0731458
-0.0688945
-0.0640979
-0.0587796
-0.052986
-0.0467918
-0.0402905
-0.0335975
-0.026836
-0.0201383
-0.0136296
-0.00743053
-0.00163933
0.00365808
0.00839812
0.0125314
0.0160346
0.018899
0.021139
0.0227779
0.0238568
0.0244191
0.0245196
0.0242094
0.0235469
0.0225815
0.021367
0.0199452
0.0183609
0.0166453
0.0148332
0.0129451
0.0110066
0.00902898
0.00703051
0.00501594
0.00299831
0.000979366
-0.0961901
-0.097276
-0.0981132
-0.098725
-0.0990418
-0.0991606
-0.0991952
-0.0992091
-0.0992249
-0.0992552
-0.0992944
-0.099335
-0.0993755
-0.0994142
-0.0994489
-0.0994777
-0.0994993
-0.0995137
-0.0995168
-0.0995024
-0.0994684
-0.0994144
-0.0993399
-0.0992444
-0.0991281
-0.0989888
-0.0988239
-0.0986325
-0.0984147
-0.0981704
-0.0978983
-0.0975967
-0.0972632
-0.0968946
-0.0964872
-0.096036
-0.0955362
-0.0949823
-0.0943673
-0.093683
-0.0929186
-0.0920614
-0.0910957
-0.0900028
-0.0887592
-0.0873354
-0.0856953
-0.0837978
-0.0815976
-0.0790504
-0.0761139
-0.0727535
-0.0689442
-0.0646808
-0.0599762
-0.0548662
-0.0494046
-0.0436669
-0.0377416
-0.0317324
-0.0257452
-0.0198904
-0.0142672
-0.00897021
-0.00407405
0.000357985
0.00428781
0.00768631
0.0105485
0.0128746
0.0146873
0.016009
0.0168818
0.0173408
0.0174379
0.0172124
0.0167189
0.0159939
0.0150886
0.0140311
0.0128655
0.0116089
0.0102979
0.00893893
0.00756283
0.00616666
0.00477758
0.00338532
0.00201479
0.000647762
-0.118859
-0.103945
-0.102019
-0.100543
-0.0996279
-0.0991993
-0.0990246
-0.0989628
-0.0989447
-0.0989487
-0.098988
-0.09905
-0.0991149
-0.0991757
-0.0992307
-0.0992782
-0.0993154
-0.0993387
-0.0993432
-0.0993239
-0.0992775
-0.0992025
-0.0990985
-0.0989661
-0.0988051
-0.098613
-0.0983866
-0.0981231
-0.0978208
-0.0974785
-0.0970943
-0.0966666
-0.096193
-0.0956699
-0.0950932
-0.0944581
-0.0937589
-0.0929899
-0.0921439
-0.0912128
-0.0901864
-0.0890526
-0.0877965
-0.0863992
-0.0848383
-0.0830897
-0.0811258
-0.0789174
-0.0764341
-0.0736474
-0.0705332
-0.0670755
-0.0632682
-0.0591205
-0.0546557
-0.0499135
-0.0449463
-0.0398212
-0.0346133
-0.0294081
-0.02429
-0.0193449
-0.0146471
-0.0102657
-0.00625298
-0.00265311
0.000514765
0.00323667
0.00551844
0.00736487
0.00880125
0.00984785
0.010545
0.0109211
0.0110238
0.0108828
0.0105485
0.0100468
0.00942626
0.00870325
0.00792139
0.00708482
0.00623235
0.00535569
0.00449149
0.00362019
0.00277975
0.00194061
0.00114448
0.000347753
-0.086431
-0.0928815
-0.0953889
-0.0962337
-0.0966831
-0.0970868
-0.0974604
-0.0977746
-0.0980465
-0.0982833
-0.0984874
-0.0986612
-0.0988079
-0.0989314
-0.0990341
-0.0991153
-0.099172
-0.0991994
-0.0991925
-0.0991469
-0.0990591
-0.0989272
-0.0987503
-0.0985284
-0.098261
-0.0979466
-0.0975834
-0.0971692
-0.0967027
-0.0961825
-0.0956071
-0.0949736
-0.0942786
-0.093519
-0.092691
-0.0917908
-0.0908135
-0.089754
-0.088606
-0.0873623
-0.0860147
-0.0845531
-0.0829658
-0.0812393
-0.0793583
-0.0773068
-0.0750679
-0.0726239
-0.0699581
-0.0670562
-0.0639083
-0.0605114
-0.0568702
-0.0529999
-0.0489255
-0.0446833
-0.040318
-0.0358834
-0.0314397
-0.0270535
-0.0227905
-0.0187159
-0.0148861
-0.0113509
-0.00814422
-0.00529152
-0.00280044
-0.000675229
0.00109494
0.00251854
0.0036209
0.00442207
0.00496009
0.0052603
0.00536613
0.00530119
0.0051103
0.00481112
0.00444745
0.0040269
0.00359069
0.00313272
0.00269205
0.00224687
0.0018382
0.00142842
0.00106699
0.000699541
0.00038888
5.81801e-05
-0.0805242
-0.0882981
-0.0922784
-0.0937026
-0.0941381
-0.0944775
-0.0949784
-0.0955978
-0.0962221
-0.0967771
-0.0972393
-0.0976169
-0.0979277
-0.0981865
-0.0984006
-0.0985701
-0.098691
-0.0987573
-0.098763
-0.0987031
-0.0985742
-0.0983745
-0.0981037
-0.0977621
-0.0973506
-0.0968698
-0.0963202
-0.095702
-0.0950153
-0.09426
-0.0934356
-0.092541
-0.0915748
-0.0905351
-0.0894197
-0.0882261
-0.0869509
-0.0855904
-0.0841403
-0.0825955
-0.0809504
-0.0791987
-0.0773333
-0.0753463
-0.0732294
-0.070974
-0.0685708
-0.066011
-0.0632866
-0.0603922
-0.0573261
-0.0540919
-0.0506987
-0.047163
-0.0435091
-0.0397694
-0.0359841
-0.0321991
-0.0284628
-0.0248247
-0.0213333
-0.0180356
-0.0149715
-0.0121744
-0.00966608
-0.00746114
-0.00556162
-0.00396257
-0.00264675
-0.00159842
-0.000792322
-0.000206766
0.000192324
0.000430899
0.000547644
0.000564638
0.000517746
0.000418792
0.000300506
0.000164574
4.38083e-05
-7.30656e-05
-0.000152454
-0.000223494
-0.000246619
-0.000272216
-0.000243783
-0.000238393
-0.000171373
-0.000159753
-0.0703404
-0.0775244
-0.0828678
-0.0863609
-0.0885102
-0.0899723
-0.0911953
-0.0923585
-0.0934746
-0.0944983
-0.0953917
-0.0961446
-0.0967677
-0.0972777
-0.0976884
-0.0980065
-0.0982325
-0.0983636
-0.0983962
-0.098327
-0.0981547
-0.0978792
-0.0975022
-0.0970262
-0.0964545
-0.0957904
-0.0950374
-0.0941985
-0.0932763
-0.092273
-0.0911903
-0.0900293
-0.0887903
-0.0874732
-0.0860771
-0.0846007
-0.0830421
-0.0813992
-0.0796694
-0.0778502
-0.0759385
-0.0739314
-0.0718261
-0.0696195
-0.067309
-0.0648921
-0.0623669
-0.0597319
-0.0569872
-0.0541342
-0.0511764
-0.0481203
-0.0449762
-0.0417596
-0.0384924
-0.035204
-0.0319306
-0.0287134
-0.0255946
-0.022614
-0.0198058
-0.0171972
-0.0148082
-0.0126544
-0.0107484
-0.00910033
-0.00771055
-0.0065661
-0.00563924
-0.0049012
-0.00432389
-0.0038861
-0.00356275
-0.00333012
-0.00315623
-0.00301931
-0.00289525
-0.00277804
-0.00265274
-0.00252272
-0.00237103
-0.00220791
-0.00201198
-0.00180672
-0.00156177
-0.00132084
-0.00103368
-0.000780274
-0.000469256
-0.000247562
-0.0651433
-0.0717685
-0.0772458
-0.081471
-0.0845677
-0.0868459
-0.0886464
-0.0902076
-0.0916377
-0.0929542
-0.094137
-0.0951656
-0.0960336
-0.0967466
-0.0973148
-0.0977466
-0.0980459
-0.0982127
-0.0982455
-0.0981429
-0.097905
-0.0975337
-0.0970327
-0.0964069
-0.0956623
-0.0948049
-0.0938406
-0.0927752
-0.0916138
-0.0903613
-0.0890215
-0.0875974
-0.0860912
-0.084504
-0.0828362
-0.0810875
-0.0792574
-0.0773454
-0.0753508
-0.0732732
-0.0711124
-0.068869
-0.0665438
-0.0641383
-0.0616552
-0.0590977
-0.0564703
-0.0537785
-0.0510286
-0.0482277
-0.0453834
-0.0425043
-0.0396003
-0.0366847
-0.033775
-0.0308955
-0.0280788
-0.0253641
-0.0227934
-0.0204031
-0.0182156
-0.0162356
-0.0144537
-0.0128599
-0.0114552
-0.0102519
-0.00925588
-0.00845236
-0.00780315
-0.00726168
-0.00679364
-0.00638555
-0.0060316
-0.00572313
-0.00544108
-0.00516627
-0.00488058
-0.00457805
-0.00425483
-0.0039186
-0.00356964
-0.00321758
-0.00285532
-0.00249337
-0.00211569
-0.00174387
-0.00134837
-0.000981073
-0.000575396
-0.000259637
-0.0606577
-0.0669377
-0.0724096
-0.0769782
-0.0806509
-0.083561
-0.0859185
-0.0879226
-0.089706
-0.0913271
-0.0927935
-0.0940917
-0.0952084
-0.0961385
-0.0968842
-0.0974507
-0.097842
-0.09806
-0.0981051
-0.0979781
-0.0976813
-0.0972193
-0.0965986
-0.0958274
-0.0949143
-0.093868
-0.092697
-0.0914096
-0.0900137
-0.0885171
-0.0869263
-0.0852463
-0.0834809
-0.0816329
-0.0797036
-0.0776943
-0.0756055
-0.0734381
-0.0711935
-0.0688735
-0.0664811
-0.06402
-0.0614951
-0.0589122
-0.0562785
-0.0536029
-0.0508956
-0.0481687
-0.0454353
-0.0427082
-0.039999
-0.0373176
-0.0346729
-0.0320741
-0.0295321
-0.027061
-0.0246822
-0.0224302
-0.0203485
-0.0184767
-0.0168322
-0.0153952
-0.0141197
-0.0129643
-0.0119187
-0.0110003
-0.0102267
-0.00959582
-0.00907153
-0.00859662
-0.00812756
-0.00765372
-0.00718643
-0.00674042
-0.00632077
-0.0059231
-0.00553737
-0.00515441
-0.00476528
-0.00436816
-0.003962
-0.0035517
-0.00313613
-0.00272027
-0.00229819
-0.0018783
-0.00144971
-0.00103667
-0.000609414
-0.000251194
-0.0571045
-0.0631857
-0.0686436
-0.0734006
-0.0774337
-0.0807968
-0.0836114
-0.0860226
-0.0881511
-0.0900682
-0.0918001
-0.0933443
-0.0946879
-0.0958198
-0.0967346
-0.0974317
-0.0979122
-0.0981774
-0.0982288
-0.0980685
-0.0977015
-0.0971356
-0.0963819
-0.0954531
-0.0943616
-0.0931187
-0.0917354
-0.0902227
-0.0885912
-0.0868508
-0.0850107
-0.0830782
-0.0810592
-0.078958
-0.0767777
-0.0745206
-0.0721888
-0.0697848
-0.0673118
-0.0647743
-0.0621783
-0.0595314
-0.0568428
-0.054123
-0.0513836
-0.0486372
-0.0458986
-0.0431859
-0.0405192
-0.0379169
-0.0353923
-0.0329537
-0.0306054
-0.0283511
-0.0261939
-0.024135
-0.0221749
-0.0203336
-0.0186502
-0.017166
-0.0159055
-0.0148379
-0.0138955
-0.0130195
-0.0121885
-0.0114107
-0.0106938
-0.010055
-0.009498
-0.00899394
-0.00851129
-0.00804347
-0.0075858
-0.00713031
-0.00667484
-0.00621943
-0.00576403
-0.00531052
-0.00486204
-0.00442197
-0.00399039
-0.00356591
-0.00314569
-0.00272857
-0.00230962
-0.00188963
-0.00146463
-0.00104416
-0.000622296
-0.000253696
-0.0542543
-0.060237
-0.0656923
-0.0705546
-0.0748035
-0.0784714
-0.0816354
-0.084394
-0.0868405
-0.0890409
-0.0910278
-0.0928062
-0.0943661
-0.0956927
-0.0967742
-0.0976032
-0.0981762
-0.0984918
-0.0985508
-0.0983566
-0.097916
-0.0972402
-0.0963459
-0.0952525
-0.0939777
-0.0925363
-0.0909423
-0.0892092
-0.0873503
-0.0853783
-0.0833046
-0.0811391
-0.0788899
-0.0765631
-0.0741636
-0.0716952
-0.0691618
-0.0665676
-0.0639178
-0.0612194
-0.0584814
-0.0557153
-0.0529351
-0.0501566
-0.0473958
-0.044667
-0.0419842
-0.0393692
-0.0368456
-0.0344323
-0.0321388
-0.0299661
-0.0279092
-0.0259637
-0.0241291
-0.0224048
-0.0207904
-0.0192845
-0.0179061
-0.0166776
-0.0155952
-0.014642
-0.013793
-0.0130208
-0.0123088
-0.0116548
-0.0110674
-0.0105024
-0.00991856
-0.00930898
-0.00869857
-0.0081125
-0.00756612
-0.00706257
-0.00659756
-0.00615632
-0.00572521
-0.00529667
-0.00486787
-0.00443905
-0.0040115
-0.00358705
-0.00316531
-0.00274512
-0.00232422
-0.00190209
-0.0014775
-0.00105515
-0.000642389
-0.000250429
-0.0519144
-0.0578785
-0.0633433
-0.0682648
-0.0726434
-0.0765166
-0.0799448
-0.0829954
-0.0857323
-0.0882054
-0.0904437
-0.0924543
-0.0942282
-0.0957489
-0.0969988
-0.0979637
-0.0986339
-0.0990047
-0.0990759
-0.0988518
-0.0983413
-0.0975593
-0.0965275
-0.0952725
-0.0938183
-0.0921865
-0.0903968
-0.0884673
-0.0864148
-0.0842545
-0.0819995
-0.079661
-0.0772479
-0.0747674
-0.0722253
-0.0696265
-0.0669761
-0.0642793
-0.0615427
-0.0587747
-0.0559859
-0.0531899
-0.0504033
-0.0476457
-0.0449373
-0.0422938
-0.0397332
-0.0372782
-0.0349458
-0.0327435
-0.0306683
-0.0287113
-0.0268571
-0.0250924
-0.0234164
-0.0218467
-0.0204113
-0.0191369
-0.0180311
-0.0170756
-0.0161883
-0.0152877
-0.0143484
-0.0133928
-0.0124818
-0.0116761
-0.0109715
-0.0103533
-0.00978839
-0.00923585
-0.00868995
-0.00815405
-0.00763564
-0.00714388
-0.00667366
-0.00621734
-0.00576916
-0.0053262
-0.00488786
-0.00445436
-0.00402484
-0.00359878
-0.00317551
-0.00275408
-0.00233318
-0.00191186
-0.00148955
-0.00107075
-0.000663574
-0.000250026
-0.0504243
-0.0563589
-0.0617948
-0.0667238
-0.0711705
-0.075176
-0.0787896
-0.0820599
-0.0850291
-0.0877315
-0.090187
-0.0923997
-0.0943603
-0.0960502
-0.0974479
-0.0985329
-0.0992897
-0.0997087
-0.0997878
-0.0995329
-0.0989579
-0.0980833
-0.0969329
-0.0955326
-0.0939134
-0.0921077
-0.0901454
-0.0880525
-0.0858509
-0.0835584
-0.0811894
-0.0787547
-0.0762627
-0.0737196
-0.0711303
-0.0684989
-0.0658295
-0.0631268
-0.0603966
-0.0576465
-0.0548862
-0.0521286
-0.04939
-0.0466903
-0.0440538
-0.0415091
-0.0390857
-0.0368049
-0.034677
-0.0326982
-0.0308491
-0.0290986
-0.0274138
-0.0257546
-0.024104
-0.0224741
-0.020904
-0.019445
-0.0181475
-0.017008
-0.0159976
-0.0150723
-0.0141931
-0.01335
-0.0125487
-0.0118039
-0.0111284
-0.0105042
-0.00990705
-0.00932414
-0.00875411
-0.00820308
-0.00767689
-0.00717584
-0.0066971
-0.00623526
-0.00578468
-0.00534132
-0.00490298
-0.00446882
-0.00403845
-0.00361141
-0.00318706
-0.00276475
-0.00234379
-0.00192355
-0.00150381
-0.00108777
-0.000679144
-0.000252383
-0.0495333
-0.0554885
-0.0609283
-0.0658792
-0.0703812
-0.0744773
-0.0782115
-0.0816272
-0.0847611
-0.0876353
-0.0902578
-0.0926241
-0.0947207
-0.0965275
-0.0980225
-0.099185
-0.0999987
-0.100454
-0.10055
-0.100295
-0.0997044
-0.0988023
-0.0976179
-0.0961833
-0.0945316
-0.0926949
-0.0907033
-0.0885837
-0.0863592
-0.0840485
-0.0816663
-0.0792241
-0.0767302
-0.0741909
-0.0716109
-0.0689941
-0.0663441
-0.0636647
-0.060961
-0.0582393
-0.0555079
-0.0527777
-0.0500626
-0.0473796
-0.0447489
-0.0421926
-0.0397325
-0.0373871
-0.035168
-0.0330778
-0.0311097
-0.0292545
-0.0274754
-0.0257501
-0.0240768
-0.0224678
-0.0209538
-0.0195684
-0.0183292
-0.0172317
-0.0162325
-0.0152837
-0.0143624
-0.0134713
-0.0126315
-0.0118626
-0.0111647
-0.0105242
-0.00991928
-0.00933529
-0.00876955
-0.0082245
-0.00770284
-0.00720448
-0.00672576
-0.0062618
-0.00580834
-0.00536252
-0.00492266
-0.00448776
-0.00405699
-0.00362962
-0.00320493
-0.00278233
-0.00236151
-0.00194238
-0.00152491
-0.0011096
-0.000695216
-0.000259471
)
;

boundaryField
{
    fixedWalls
    {
        type            zeroGradient;
    }
    inflowWall
    {
        type            zeroGradient;
    }
    outflowWall
    {
        type            fixedValue;
        value           uniform 0;
    }
    frontAndBack
    {
        type            empty;
    }
}


// ************************************************************************* //
