/*--------------------------------*- C++ -*----------------------------------*\
| =========                 |                                                 |
| \\      /  F ield         | OpenFOAM: The Open Source CFD Toolbox           |
|  \\    /   O peration     | Version:  2306                                  |
|   \\  /    A nd           | Website:  www.openfoam.com                      |
|    \\/     M anipulation  |                                                 |
\*---------------------------------------------------------------------------*/
FoamFile
{
    version     2.0;
    format      ascii;
    arch        "LSB;label=32;scalar=64";
    class       volScalarField;
    location    "3.72";
    object      p;
}
// * * * * * * * * * * * * * * * * * * * * * * * * * * * * * * * * * * * * * //

dimensions      [0 2 -2 0 0 0 0];

internalField   nonuniform List<scalar> 
1900
(
0.0575753
0.0333502
0.0129544
-0.00239235
-0.0134203
-0.0239886
-0.0344469
-0.0466358
-0.0592218
-0.0733188
0.0283147
0.0201151
0.00879576
-0.00276213
-0.0137945
-0.0239926
-0.0344402
-0.0449713
-0.0564897
-0.0675627
0.0192252
0.0147336
0.00721576
-0.00215585
-0.012244
-0.0222283
-0.0320133
-0.0415718
-0.0510054
-0.060101
0.0135276
0.0104538
0.00480284
-0.00284731
-0.0117014
-0.0209446
-0.0301394
-0.0390578
-0.0476562
-0.055819
0.0113079
0.00877242
0.00403358
-0.00261465
-0.0105935
-0.019197
-0.0278716
-0.0362942
-0.0443136
-0.0518401
0.0119465
0.00946606
0.00485608
-0.0016078
-0.00934457
-0.0176457
-0.0259518
-0.0339454
-0.0415016
-0.0485913
0.0154061
0.0124609
0.00718135
0.000100775
-0.00795575
-0.0162375
-0.0242784
-0.0319007
-0.039096
-0.0458987
0.0221086
0.0178143
0.0109189
0.00245378
-0.0063608
-0.0147779
-0.0226014
-0.0299248
-0.036897
-0.0435796
0.0322524
0.0241547
0.0137218
0.00326571
-0.00603434
-0.0141368
-0.0214936
-0.028527
-0.0354002
-0.0420724
0.061104
0.0384333
0.0187301
0.00467293
-0.00497663
-0.0126614
-0.0198771
-0.0270783
-0.0342145
-0.04108
-0.0965783
-0.0966119
-0.0966565
-0.0967102
-0.0967702
-0.096836
-0.0969072
-0.0969827
-0.0970613
-0.0971414
-0.0972214
-0.0972999
-0.0973751
-0.0974455
-0.0975096
-0.0975659
-0.0976131
-0.0976499
-0.0976752
-0.0976882
-0.097688
-0.0976741
-0.0976458
-0.097603
-0.0975454
-0.0974729
-0.0973856
-0.0972835
-0.0971669
-0.0970363
-0.0968925
-0.0967365
-0.0965698
-0.0963938
-0.0962097
-0.0960174
-0.0958141
-0.0955929
-0.0953406
-0.0950365
-0.0946517
-0.0941496
-0.0934885
-0.0926229
-0.091504
-0.0900779
-0.088281
-0.0860384
-0.0832648
-0.0798679
-0.0757509
-0.070835
-0.065078
-0.0584672
-0.0510394
-0.0428714
-0.0340694
-0.0247776
-0.0151706
-0.00544921
0.00418821
0.0135393
0.0224144
0.0306426
0.0380782
0.0446101
0.0501595
0.0546862
0.0581759
0.0606496
0.0621455
0.0627303
0.0624765
0.0614738
0.0598085
0.0575787
0.0548673
0.051765
0.0483397
0.0446676
0.0407962
0.0367853
0.0326598
0.0284653
0.0242034
0.0199107
0.0155626
0.0111988
0.00675838
0.00231168
-0.096574
-0.0966055
-0.0966324
-0.0966737
-0.0967247
-0.096784
-0.0968501
-0.0969212
-0.0969959
-0.0970726
-0.0971498
-0.0972258
-0.097299
-0.0973678
-0.0974305
-0.0974857
-0.097532
-0.097568
-0.0975926
-0.0976048
-0.0976038
-0.0975888
-0.0975593
-0.0975148
-0.0974551
-0.0973799
-0.0972892
-0.0971829
-0.0970612
-0.0969241
-0.0967719
-0.096605
-0.0964238
-0.0962287
-0.0960199
-0.0957968
-0.095557
-0.0952952
-0.0950019
-0.0946625
-0.0942565
-0.0937573
-0.0931322
-0.0923414
-0.0913366
-0.0900601
-0.0884399
-0.0863866
-0.0837949
-0.0805508
-0.0765502
-0.0717226
-0.0660748
-0.0595783
-0.0522391
-0.0441204
-0.0353376
-0.0260446
-0.016416
-0.00666062
0.00301882
0.0124142
0.021329
0.0295993
0.037069
0.0436266
0.0491973
0.0537447
0.057252
0.059742
0.0612518
0.0618519
0.0616147
0.0606363
0.0589984
0.0568023
0.0541254
0.0510641
0.0476793
0.0440548
0.0402283
0.0362701
0.0321923
0.0280544
0.0238419
0.0196094
0.0153134
0.0110107
0.00663043
0.00225815
-0.0964563
-0.0965376
-0.096583
-0.0966363
-0.0966923
-0.0967536
-0.0968213
-0.0968942
-0.0969711
-0.0970503
-0.0971304
-0.0972094
-0.0972857
-0.0973577
-0.0974235
-0.0974817
-0.0975308
-0.0975693
-0.0975961
-0.09761
-0.09761
-0.0975956
-0.0975662
-0.0975213
-0.0974608
-0.0973846
-0.0972927
-0.0971852
-0.0970625
-0.0969246
-0.0967718
-0.0966037
-0.0964204
-0.0962215
-0.0960065
-0.0957741
-0.095522
-0.0952468
-0.0949432
-0.0946041
-0.0942189
-0.093771
-0.0932371
-0.0925814
-0.0917491
-0.0906712
-0.0892597
-0.0874085
-0.085
-0.0819268
-0.0780918
-0.0734017
-0.0677812
-0.0612598
-0.053878
-0.0457204
-0.0369017
-0.0275775
-0.017906
-0.00814683
0.00152235
0.0109037
0.0198002
0.0280464
0.0354882
0.0420196
0.0475602
0.0520773
0.0555554
0.0580222
0.0595154
0.0601103
0.0598769
0.0589151
0.0573042
0.0551497
0.0525251
0.0495304
0.0462216
0.0426863
0.0389572
0.0351079
0.031146
0.0271337
0.0230535
0.01896
0.0148113
0.0106598
0.00644318
0.00222298
-0.0965393
-0.0966127
-0.0966166
-0.0966421
-0.0966874
-0.0967492
-0.0968222
-0.0969025
-0.0969874
-0.0970751
-0.0971633
-0.0972501
-0.0973336
-0.097412
-0.0974835
-0.0975466
-0.0975995
-0.097641
-0.0976697
-0.0976847
-0.097685
-0.0976699
-0.0976391
-0.0975922
-0.097529
-0.0974495
-0.0973539
-0.0972426
-0.0971157
-0.0969734
-0.0968159
-0.0966425
-0.0964523
-0.0962443
-0.0960181
-0.0957735
-0.0955108
-0.0952301
-0.0949304
-0.0946087
-0.0942586
-0.0938699
-0.0934236
-0.0928856
-0.0921883
-0.0912507
-0.0899805
-0.0882669
-0.0859775
-0.0829894
-0.0792019
-0.0745476
-0.0689753
-0.0624979
-0.0551577
-0.0470457
-0.0382855
-0.0290343
-0.0194763
-0.0098298
-0.00029865
0.00892309
0.0176437
0.025702
0.0329542
0.0393013
0.0446678
0.0490255
0.0523644
0.0547176
0.0561265
0.0566691
0.0564165
0.0554688
0.0539052
0.0518299
0.0493145
0.0464556
0.0433077
0.039954
0.0364267
0.032794
0.0290654
0.0252963
0.0214744
0.0176457
0.0137772
0.00990935
0.00599018
0.00205995
-0.0962126
-0.0964178
-0.0965082
-0.0966119
-0.0967102
-0.0968031
-0.0968952
-0.09699
-0.097087
-0.0971848
-0.0972816
-0.0973756
-0.0974649
-0.0975478
-0.0976226
-0.0976876
-0.0977415
-0.0977827
-0.09781
-0.0978222
-0.0978188
-0.0977991
-0.097763
-0.0977103
-0.0976411
-0.0975554
-0.0974539
-0.0973372
-0.0972055
-0.0970592
-0.0968982
-0.0967216
-0.0965278
-0.0963151
-0.0960834
-0.0958337
-0.0955675
-0.095287
-0.0949938
-0.094687
-0.0943608
-0.0940052
-0.0936017
-0.0931326
-0.092487
-0.0915996
-0.0903588
-0.0886558
-0.0863705
-0.0833872
-0.0796072
-0.0749649
-0.0694256
-0.0630031
-0.0557499
-0.0477616
-0.0391677
-0.0301304
-0.0208344
-0.0114834
-0.00228217
0.00657945
0.0149219
0.0225939
0.0294656
0.0354478
0.040477
0.0445324
0.0476138
0.0497597
0.0510174
0.0514659
0.0511783
0.0502515
0.0487644
0.0468148
0.0444728
0.0418268
0.0389301
0.0358564
0.0326389
0.0293356
0.0259599
0.0225561
0.0191191
0.015683
0.0122262
0.00877559
0.00529585
0.00181419
-0.0970457
-0.0970677
-0.0969657
-0.09692
-0.09693
-0.0969873
-0.0970748
-0.0971752
-0.0972778
-0.0973792
-0.0974774
-0.0975708
-0.0976577
-0.0977366
-0.0978063
-0.0978652
-0.0979123
-0.0979461
-0.0979654
-0.0979693
-0.0979571
-0.0979288
-0.0978844
-0.0978239
-0.0977474
-0.097655
-0.0975476
-0.0974261
-0.0972907
-0.0971417
-0.0969786
-0.0968006
-0.0966056
-0.0963904
-0.0961581
-0.0959104
-0.0956477
-0.0953717
-0.0950841
-0.094784
-0.0944636
-0.0941047
-0.0936824
-0.0931606
-0.0924661
-0.0915135
-0.0901991
-0.0884143
-0.0860452
-0.0829874
-0.0791539
-0.0744909
-0.0689768
-0.0626328
-0.0555202
-0.0477412
-0.0394308
-0.0307523
-0.0218877
-0.0130296
-0.00436944
0.00391496
0.0116623
0.0187369
0.0250284
0.030462
0.0349913
0.0386066
0.0413206
0.043177
0.0442307
0.0445585
0.0442356
0.0433515
0.0419835
0.0402184
0.0381238
0.0357753
0.0332246
0.030532
0.0277314
0.0248679
0.0219581
0.0190341
0.0160974
0.0131698
0.0102403
0.0073246
0.00440283
0.00149078
-0.0957151
-0.0963636
-0.096566
-0.0968224
-0.0970378
-0.0972009
-0.0973229
-0.0974235
-0.0975159
-0.0976036
-0.097687
-0.0977652
-0.0978368
-0.0979007
-0.0979558
-0.0980009
-0.0980352
-0.0980573
-0.0980657
-0.0980595
-0.0980381
-0.0980014
-0.0979493
-0.0978818
-0.0977991
-0.0977006
-0.0975887
-0.0974644
-0.0973273
-0.0971772
-0.0970137
-0.0968359
-0.0966419
-0.0964278
-0.0961894
-0.0959297
-0.0956518
-0.0953559
-0.09504
-0.0946995
-0.0943241
-0.0938951
-0.0933823
-0.092742
-0.091905
-0.0907872
-0.0892919
-0.0873188
-0.0847688
-0.0815553
-0.0776101
-0.0728946
-0.0674027
-0.0611676
-0.0542605
-0.0467903
-0.0388941
-0.0307331
-0.0224809
-0.0143165
-0.00641051
0.00108106
0.00802349
0.0143046
0.0198391
0.0245721
0.0284776
0.0315587
0.0338413
0.0353726
0.0362119
0.036431
0.0361032
0.035307
0.0341148
0.0325995
0.0308234
0.0288476
0.0267196
0.0244861
0.0221794
0.0198322
0.0174627
0.0150916
0.0127255
0.0103758
0.00804041
0.00572511
0.00342288
0.00114083
-0.100433
-0.0990523
-0.0984237
-0.0979901
-0.0977635
-0.0976739
-0.0976617
-0.0976855
-0.0977235
-0.0977682
-0.0978166
-0.0978655
-0.0979129
-0.0979571
-0.0979963
-0.0980285
-0.0980525
-0.098065
-0.0980643
-0.0980506
-0.0980234
-0.097983
-0.0979285
-0.0978596
-0.0977758
-0.0976759
-0.0975574
-0.0974236
-0.0972757
-0.0971125
-0.096932
-0.0967318
-0.0965093
-0.0962614
-0.0959858
-0.0956816
-0.0953481
-0.0949826
-0.0945801
-0.0941319
-0.0936234
-0.0930319
-0.0923234
-0.0914511
-0.0903523
-0.0889515
-0.0871646
-0.0849066
-0.082098
-0.0786747
-0.0745918
-0.0698307
-0.0644026
-0.0583538
-0.0517628
-0.0447396
-0.0374173
-0.0299483
-0.02249
-0.015201
-0.00822727
-0.00169714
0.00428791
0.00964519
0.0143186
0.0182755
0.0215102
0.0240366
0.0258892
0.0271143
0.0277703
0.0279196
0.0276295
0.0269654
0.0259922
0.0247684
0.0233491
0.0217808
0.0201062
0.0183588
0.0165689
0.0147577
0.0129447
0.0111404
0.00935576
0.00759355
0.00585882
0.00414906
0.00246585
0.000805066
-0.0945841
-0.0956764
-0.0965153
-0.0971278
-0.0974444
-0.0975623
-0.0975959
-0.097608
-0.0976229
-0.0976522
-0.0976907
-0.0977311
-0.0977713
-0.0978101
-0.0978457
-0.0978763
-0.0979013
-0.0979201
-0.0979262
-0.0979157
-0.0978875
-0.0978422
-0.097781
-0.0977025
-0.0976046
-0.0974851
-0.0973429
-0.0971782
-0.0969907
-0.0967788
-0.0965398
-0.0962706
-0.0959676
-0.0956269
-0.0952444
-0.0948164
-0.094339
-0.0938069
-0.0932122
-0.0925427
-0.091781
-0.0909029
-0.0898759
-0.0886574
-0.0871943
-0.0854255
-0.0832856
-0.0807105
-0.0776426
-0.0740367
-0.0698678
-0.0651384
-0.0598776
-0.0541435
-0.0480185
-0.0416093
-0.0350372
-0.0284351
-0.0219346
-0.0156634
-0.00973383
-0.00424465
0.000730331
0.00513697
0.00894641
0.0121454
0.0147426
0.0167576
0.0182272
0.0191924
0.0197062
0.0198196
0.0195919
0.0190757
0.0183285
0.0173958
0.0163262
0.015153
0.0139143
0.0126313
0.0113328
0.0100293
0.00874161
0.00747084
0.00623267
0.00502078
0.00384826
0.00270331
0.0015979
0.00051488
-0.117287
-0.102352
-0.100423
-0.0989463
-0.0980309
-0.0976019
-0.0974268
-0.0973634
-0.0973417
-0.0973427
-0.0973785
-0.0974384
-0.0975024
-0.0975617
-0.0976145
-0.0976594
-0.0976941
-0.0977149
-0.0977162
-0.0976935
-0.0976456
-0.0975732
-0.0974759
-0.0973515
-0.0971969
-0.0970092
-0.096786
-0.0965255
-0.0962258
-0.0958846
-0.0954997
-0.0950678
-0.0945852
-0.0940475
-0.0934504
-0.0927892
-0.0920587
-0.0912526
-0.0903621
-0.089375
-0.088274
-0.0870351
-0.0856267
-0.0840129
-0.0821531
-0.0800036
-0.0775201
-0.0746618
-0.0713955
-0.0677013
-0.063576
-0.0590373
-0.0541232
-0.0488918
-0.0434183
-0.0377937
-0.0321187
-0.0265
-0.0210401
-0.0158356
-0.0109674
-0.0065057
-0.0025007
0.00101579
0.00403321
0.0065496
0.00857978
0.0101442
0.0112786
0.0120185
0.0124108
0.0124967
0.012328
0.011947
0.0114046
0.0107358
0.00998337
0.00916984
0.00832853
0.0074698
0.00661998
0.00577896
0.00496913
0.0041816
0.00343783
0.00272106
0.00205402
0.00141241
0.000821925
0.000247892
-0.0848065
-0.0912781
-0.0937868
-0.0946258
-0.0950681
-0.0954645
-0.0958306
-0.0961373
-0.096402
-0.0966323
-0.0968295
-0.096996
-0.0971348
-0.0972495
-0.097342
-0.097412
-0.0974563
-0.0974704
-0.0974492
-0.0973884
-0.0972856
-0.0971392
-0.0969481
-0.0967107
-0.0964246
-0.0960879
-0.0956987
-0.0952553
-0.094756
-0.0941985
-0.0935792
-0.092894
-0.0921396
-0.0913128
-0.09041
-0.0894272
-0.0883596
-0.0872012
-0.0859441
-0.0845779
-0.0830884
-0.0814579
-0.0796645
-0.0776841
-0.0754903
-0.0730564
-0.0703571
-0.0673711
-0.0640845
-0.0604931
-0.0566052
-0.0524429
-0.0480424
-0.0434528
-0.0387343
-0.0339587
-0.029205
-0.0245556
-0.0200899
-0.0158814
-0.01199
-0.00846186
-0.00532512
-0.00259571
-0.000275072
0.00164119
0.00316995
0.00433247
0.00516321
0.00569535
0.00597148
0.00602717
0.00590737
0.00564605
0.0052865
0.00485525
0.00438885
0.00390155
0.00342129
0.00294897
0.00250659
0.00208398
0.00170281
0.00134487
0.00103672
0.000751105
0.000520746
0.000305998
0.000148791
-5.72666e-06
-0.0788189
-0.0866006
-0.0905856
-0.0920114
-0.0924443
-0.0927775
-0.0932697
-0.093878
-0.0944886
-0.0950265
-0.09547
-0.0958281
-0.0961191
-0.0963572
-0.0965492
-0.0966949
-0.0967899
-0.0968281
-0.0968032
-0.0967104
-0.096546
-0.0963083
-0.0959962
-0.0956097
-0.0951486
-0.0946128
-0.0940024
-0.0933174
-0.0925575
-0.091722
-0.0908098
-0.0898193
-0.0887493
-0.0875982
-0.0863642
-0.085045
-0.0836375
-0.0821377
-0.0805405
-0.0788391
-0.0770249
-0.0750874
-0.0730142
-0.0707913
-0.0684031
-0.0658343
-0.0630716
-0.0601056
-0.0569323
-0.053555
-0.0499857
-0.0462469
-0.0423718
-0.0384042
-0.0343968
-0.0304062
-0.0264913
-0.0227123
-0.019128
-0.0157915
-0.0127452
-0.0100195
-0.00763214
-0.00558995
-0.00388572
-0.00250387
-0.00142247
-0.000617869
-5.82034e-05
0.000289314
0.000465032
0.000504302
0.000445994
0.000316852
0.000147484
-4.4951e-05
-0.000234299
-0.000412135
-0.000558617
-0.000678463
-0.000757409
-0.000811651
-0.00082546
-0.000821832
-0.000774169
-0.000715218
-0.000606046
-0.000496906
-0.000330739
-0.000182479
-0.0685816
-0.0757837
-0.0811276
-0.0846079
-0.086739
-0.0881821
-0.0893857
-0.090528
-0.0916208
-0.0926187
-0.0934841
-0.0942077
-0.0947998
-0.0952774
-0.0956536
-0.0959345
-0.0961203
-0.0962078
-0.0961928
-0.096072
-0.0958434
-0.0955066
-0.0950626
-0.0945136
-0.0938624
-0.0931117
-0.0922646
-0.0913239
-0.0902921
-0.0891714
-0.0879635
-0.0866695
-0.0852901
-0.0838255
-0.0822757
-0.08064
-0.0789173
-0.0771061
-0.075204
-0.0732081
-0.071115
-0.0689202
-0.0666191
-0.0642063
-0.0616766
-0.0590253
-0.0562484
-0.0533439
-0.0503132
-0.0471622
-0.0439032
-0.0405562
-0.0371509
-0.0337272
-0.0303323
-0.0270169
-0.0238304
-0.0208169
-0.0180119
-0.0154424
-0.0131296
-0.0110931
-0.00934913
-0.00790266
-0.00673654
-0.00581587
-0.0051038
-0.00457213
-0.00419695
-0.00395307
-0.00380528
-0.00371662
-0.00365346
-0.00359804
-0.0035388
-0.00347294
-0.00339104
-0.00329059
-0.00316131
-0.00300712
-0.00282062
-0.0026134
-0.00237501
-0.00212385
-0.00184217
-0.00155796
-0.00123812
-0.000928483
-0.000569878
-0.000245783
-0.0633277
-0.0699461
-0.0754144
-0.079626
-0.0827041
-0.0849595
-0.0867342
-0.0882669
-0.0896656
-0.0909479
-0.0920937
-0.0930827
-0.0939085
-0.0945768
-0.0950974
-0.0954781
-0.0957222
-0.0958295
-0.0957979
-0.0956253
-0.0953112
-0.0948568
-0.0942652
-0.0935407
-0.0926886
-0.0917145
-0.0906245
-0.0894242
-0.0881193
-0.0867147
-0.0852148
-0.0836229
-0.0819418
-0.0801733
-0.0783189
-0.0763797
-0.0743568
-0.072251
-0.0700633
-0.0677949
-0.065447
-0.063021
-0.060519
-0.0579435
-0.0552978
-0.0525858
-0.0498114
-0.0469792
-0.0440948
-0.0411656
-0.0382017
-0.0352182
-0.0322383
-0.0292961
-0.0264371
-0.0237147
-0.0211782
-0.0188611
-0.0167725
-0.0149006
-0.0132304
-0.0117671
-0.0105356
-0.00955184
-0.00879514
-0.0082081
-0.00772568
-0.00731339
-0.00696737
-0.00668964
-0.00646486
-0.00626249
-0.00605104
-0.00581316
-0.00554439
-0.0052527
-0.00494697
-0.00463598
-0.00431972
-0.00399949
-0.00366974
-0.0033328
-0.00298247
-0.00262579
-0.00225353
-0.00187877
-0.00148285
-0.00109137
-0.000663766
-0.00026046
-0.0587902
-0.0650573
-0.0705144
-0.0750645
-0.0787134
-0.081594
-0.0839172
-0.0858832
-0.0876253
-0.0892019
-0.0906209
-0.0918687
-0.0929317
-0.0938048
-0.0944899
-0.0949914
-0.0953128
-0.0954556
-0.0954195
-0.0952047
-0.0948128
-0.0942475
-0.0935143
-0.0926201
-0.0915728
-0.090381
-0.0890533
-0.0875989
-0.0860266
-0.0843446
-0.0825601
-0.0806787
-0.0787051
-0.0766431
-0.0744959
-0.0722664
-0.0699578
-0.0675739
-0.0651192
-0.062599
-0.0600196
-0.0573879
-0.0547119
-0.0520011
-0.0492661
-0.0465188
-0.0437715
-0.0410362
-0.0383232
-0.0356404
-0.0329947
-0.0303934
-0.0278475
-0.0253765
-0.023017
-0.0208255
-0.018861
-0.0171587
-0.0157004
-0.0144226
-0.0132629
-0.0122109
-0.0113024
-0.0105749
-0.0100255
-0.00959181
-0.00918637
-0.00875927
-0.00831724
-0.00789285
-0.00750551
-0.00715017
-0.00681289
-0.00648137
-0.0061425
-0.0057899
-0.00542422
-0.00505084
-0.00467283
-0.00429271
-0.0039096
-0.00352491
-0.0031362
-0.00274548
-0.00234848
-0.0019491
-0.00153879
-0.00112598
-0.000688775
-0.000258653
-0.055195
-0.0612576
-0.0666929
-0.0714228
-0.0754237
-0.0787491
-0.0815207
-0.0838846
-0.0859618
-0.0878243
-0.0894984
-0.0909816
-0.0922609
-0.0933247
-0.094167
-0.0947863
-0.0951832
-0.0953582
-0.095312
-0.0950464
-0.0945659
-0.0938777
-0.0929915
-0.0919178
-0.0906677
-0.0892525
-0.0876839
-0.0859742
-0.0841352
-0.0821778
-0.0801124
-0.0779472
-0.0756895
-0.073345
-0.070919
-0.0684166
-0.0658435
-0.0632063
-0.0605135
-0.0577751
-0.0550033
-0.0522111
-0.0494125
-0.0466216
-0.043854
-0.0411285
-0.0384667
-0.0358872
-0.0334021
-0.0310163
-0.0287303
-0.0265426
-0.0244493
-0.0224474
-0.0205507
-0.0188033
-0.0172694
-0.0160034
-0.0149769
-0.014094
-0.0132683
-0.0124723
-0.0117266
-0.011049
-0.0104724
-0.0099931
-0.00956062
-0.00913827
-0.00873206
-0.00833475
-0.00793305
-0.00752156
-0.00710115
-0.00667519
-0.00625139
-0.00583758
-0.00543665
-0.00504582
-0.0046631
-0.00428519
-0.00390765
-0.00352802
-0.00314411
-0.00275573
-0.00236088
-0.00196039
-0.00155068
-0.0011328
-0.000699092
-0.000263234
-0.0523065
-0.0582637
-0.0636885
-0.0685152
-0.0727232
-0.0763452
-0.0794579
-0.0821603
-0.084546
-0.0866818
-0.0886006
-0.0903079
-0.0917934
-0.0930419
-0.0940404
-0.0947808
-0.0952582
-0.0954704
-0.0954173
-0.0951011
-0.0945284
-0.0937114
-0.092666
-0.0914081
-0.0899532
-0.088316
-0.0865116
-0.0845554
-0.0824624
-0.0802472
-0.0779227
-0.0755004
-0.07299
-0.0703998
-0.0677375
-0.0650105
-0.0622271
-0.059397
-0.0565326
-0.0536486
-0.0507635
-0.0478977
-0.0450724
-0.0423048
-0.0396074
-0.0370015
-0.0345135
-0.0321622
-0.0299529
-0.0278786
-0.0259291
-0.0240975
-0.0223747
-0.0207628
-0.0192652
-0.0178844
-0.016657
-0.0155964
-0.014688
-0.0138985
-0.0131931
-0.0125615
-0.0120032
-0.0115226
-0.0110348
-0.0104855
-0.00988277
-0.00928829
-0.00873863
-0.00824604
-0.00781058
-0.00741072
-0.00702318
-0.00663557
-0.00624445
-0.0058506
-0.00545682
-0.00506742
-0.00468195
-0.0042987
-0.00391568
-0.0035314
-0.00314401
-0.00275248
-0.00235576
-0.00195333
-0.00154307
-0.00112494
-0.000698816
-0.000259224
-0.0499327
-0.0558647
-0.0612918
-0.0661696
-0.0704986
-0.0743171
-0.0776854
-0.0806711
-0.0833382
-0.0857373
-0.0878977
-0.0898275
-0.0915179
-0.0929516
-0.0941103
-0.0949785
-0.0955452
-0.0958041
-0.0957532
-0.0953955
-0.0947392
-0.0937999
-0.0926005
-0.0911641
-0.0895133
-0.0876696
-0.085654
-0.0834865
-0.0811859
-0.0787694
-0.0762521
-0.0736474
-0.0709666
-0.0682193
-0.0654148
-0.062562
-0.0596708
-0.0567525
-0.0538216
-0.0508953
-0.0479955
-0.0451473
-0.0423786
-0.039713
-0.0371653
-0.0347562
-0.032502
-0.0304047
-0.0284523
-0.02662
-0.0248795
-0.0232172
-0.0216496
-0.0202183
-0.0189669
-0.0179297
-0.0170817
-0.0163167
-0.015501
-0.0145931
-0.0136343
-0.0127295
-0.0119703
-0.0113406
-0.0108025
-0.0102998
-0.00979561
-0.00929189
-0.00880165
-0.00834075
-0.00790797
-0.00749098
-0.00708047
-0.00667243
-0.0062672
-0.00586664
-0.00547088
-0.00507939
-0.00469147
-0.00430566
-0.00392012
-0.00353325
-0.00314365
-0.00275022
-0.00235191
-0.00194754
-0.00153573
-0.00111803
-0.000697033
-0.000254209
-0.0484149
-0.0543124
-0.0597051
-0.0645848
-0.0689757
-0.0729188
-0.0764645
-0.0796625
-0.0825551
-0.085177
-0.0875485
-0.0896738
-0.0915433
-0.0931388
-0.0944384
-0.0954208
-0.096069
-0.0963721
-0.0963262
-0.0959356
-0.0952124
-0.0941741
-0.0928429
-0.0912479
-0.0894218
-0.0873974
-0.0852052
-0.0828725
-0.0804228
-0.0778762
-0.0752489
-0.0725542
-0.069803
-0.0670042
-0.0641661
-0.0612966
-0.0584044
-0.0555
-0.0525963
-0.04971
-0.0468622
-0.0440788
-0.0413919
-0.0388363
-0.0364508
-0.0342606
-0.0322711
-0.0304627
-0.0287939
-0.0272085
-0.025643
-0.0240555
-0.0224466
-0.0208621
-0.019379
-0.0180766
-0.0169779
-0.0160297
-0.0151764
-0.0143518
-0.0135549
-0.0128084
-0.0121292
-0.0115295
-0.0109736
-0.0104301
-0.00988885
-0.00935869
-0.00885224
-0.00837726
-0.00793014
-0.00750388
-0.00709032
-0.00668367
-0.00628115
-0.00588208
-0.00548667
-0.00509479
-0.00470567
-0.00431806
-0.00393052
-0.00354162
-0.00315004
-0.00275468
-0.00235449
-0.00194829
-0.00153527
-0.00111739
-0.000696601
-0.000252231
-0.0475084
-0.0534238
-0.0588173
-0.0637155
-0.0681581
-0.0721885
-0.0758512
-0.0791904
-0.0822438
-0.0850343
-0.0875705
-0.0898482
-0.091854
-0.0935679
-0.0949671
-0.0960299
-0.0967386
-0.0970821
-0.0970572
-0.0966701
-0.0959356
-0.0948763
-0.0935208
-0.091901
-0.0900505
-0.0880027
-0.085789
-0.0834381
-0.0809745
-0.0784191
-0.0757887
-0.0730969
-0.0703548
-0.0675711
-0.0647538
-0.06191
-0.0590475
-0.0561752
-0.0533044
-0.0504489
-0.0476266
-0.0448592
-0.0421728
-0.0395959
-0.0371554
-0.0348717
-0.0327523
-0.0307908
-0.0289713
-0.0272548
-0.0255853
-0.023951
-0.0223581
-0.0208456
-0.0194691
-0.0182637
-0.0172285
-0.0163033
-0.0154189
-0.0145452
-0.0136931
-0.012896
-0.0121855
-0.0115539
-0.0109762
-0.0104248
-0.00988863
-0.00937021
-0.00887609
-0.00840807
-0.00796302
-0.00753463
-0.00711716
-0.00670705
-0.00630265
-0.00590327
-0.00550835
-0.00511716
-0.00472862
-0.00434139
-0.00395402
-0.00356511
-0.00317336
-0.00277761
-0.00237682
-0.00196998
-0.00155629
-0.00113603
-0.000708721
-0.000257804
)
;

boundaryField
{
    fixedWalls
    {
        type            zeroGradient;
    }
    inflowWall
    {
        type            zeroGradient;
    }
    outflowWall
    {
        type            fixedValue;
        value           uniform 0;
    }
    frontAndBack
    {
        type            empty;
    }
}


// ************************************************************************* //
