/*--------------------------------*- C++ -*----------------------------------*\
| =========                 |                                                 |
| \\      /  F ield         | OpenFOAM: The Open Source CFD Toolbox           |
|  \\    /   O peration     | Version:  2306                                  |
|   \\  /    A nd           | Website:  www.openfoam.com                      |
|    \\/     M anipulation  |                                                 |
\*---------------------------------------------------------------------------*/
FoamFile
{
    version     2.0;
    format      ascii;
    arch        "LSB;label=32;scalar=64";
    class       volScalarField;
    location    "3";
    object      p;
}
// * * * * * * * * * * * * * * * * * * * * * * * * * * * * * * * * * * * * * //

dimensions      [0 2 -2 0 0 0 0];

internalField   nonuniform List<scalar> 
1900
(
0.0582794
0.0340486
0.0136463
-0.00171073
-0.0127524
-0.0233418
-0.0338277
-0.046056
-0.0586932
-0.0728617
0.0290198
0.0208184
0.00949304
-0.00207376
-0.0131194
-0.0233352
-0.0338073
-0.0443686
-0.055923
-0.0670271
0.0199373
0.0154439
0.00792194
-0.00145601
-0.0115529
-0.0215484
-0.0313473
-0.0409228
-0.0503771
-0.0594967
0.0142471
0.0111722
0.00551875
-0.00213517
-0.0109942
-0.0202432
-0.0294441
-0.0383681
-0.0469724
-0.0551395
0.0120364
0.00950061
0.00476127
-0.00188749
-0.00986691
-0.0184708
-0.0271455
-0.0355674
-0.0435832
-0.0511028
0.0126839
0.0102042
0.00559558
-0.000866202
-0.00859997
-0.0168969
-0.0251971
-0.033182
-0.0407259
-0.0477991
0.0161521
0.0132083
0.00793173
0.000855623
-0.00719451
-0.0154674
-0.0234966
-0.0311036
-0.038279
-0.0450566
0.0228619
0.0185695
0.0116784
0.00321981
-0.00558543
-0.0139898
-0.0217969
-0.0290991
-0.0360447
-0.0426945
0.0330119
0.0249167
0.014489
0.00404124
-0.00524699
-0.0133337
-0.0206703
-0.0276781
-0.0345194
-0.0411525
0.0618661
0.0391985
0.0195014
0.00545367
-0.0041828
-0.0118502
-0.0190434
-0.0262163
-0.0333176
-0.0401405
-0.0962338
-0.0962671
-0.0963077
-0.0963558
-0.0964087
-0.0964669
-0.0965302
-0.0965977
-0.0966681
-0.0967398
-0.0968114
-0.0968817
-0.0969493
-0.0970129
-0.0970714
-0.0971237
-0.0971689
-0.0972062
-0.0972349
-0.0972544
-0.0972644
-0.0972646
-0.0972551
-0.0972359
-0.0972075
-0.0971707
-0.097127
-0.0970785
-0.0970287
-0.0969819
-0.096944
-0.0969214
-0.0969203
-0.0969442
-0.0969917
-0.0970525
-0.0971048
-0.0971139
-0.0970344
-0.0968153
-0.0964049
-0.0957501
-0.0947913
-0.093454
-0.0916435
-0.0892459
-0.0861336
-0.0821662
-0.0772343
-0.0712693
-0.0642499
-0.0562151
-0.0472601
-0.0375123
-0.027144
-0.0163664
-0.00542855
0.00542955
0.0159657
0.0259514
0.0351818
0.0434855
0.050732
0.0568365
0.0617566
0.0654879
0.0680625
0.0695419
0.0700071
0.0695605
0.0683132
0.0663825
0.0638816
0.0609213
0.057601
0.0540131
0.050235
0.0463368
0.0423723
0.0383898
0.0344217
0.0304985
0.0266345
0.0228468
0.0191354
0.0155087
0.0119553
0.00847321
0.00504891
0.00167642
-0.0962314
-0.0962602
-0.0962838
-0.0963196
-0.0963641
-0.0964165
-0.0964754
-0.096539
-0.0966057
-0.0966741
-0.0967428
-0.0968105
-0.0968759
-0.0969377
-0.0969945
-0.0970453
-0.0970891
-0.0971249
-0.0971521
-0.09717
-0.0971783
-0.0971766
-0.0971648
-0.097143
-0.0971113
-0.0970703
-0.0970211
-0.0969652
-0.0969045
-0.0968419
-0.0967812
-0.0967268
-0.096683
-0.0966532
-0.0966378
-0.0966316
-0.0966222
-0.0965886
-0.0965015
-0.0963241
-0.0960133
-0.0955161
-0.0947639
-0.0936663
-0.0921065
-0.0899398
-0.0870067
-0.0831747
-0.0783483
-0.0724883
-0.0655852
-0.0576489
-0.0487443
-0.0390114
-0.0286346
-0.0178229
-0.00683802
0.00407379
0.0146671
0.0247064
0.0339908
0.0423399
0.0496181
0.0557513
0.0606961
0.0644487
0.06704
0.0685363
0.0690243
0.0686065
0.0673919
0.0654979
0.0630372
0.0601212
0.0568479
0.0533105
0.0495847
0.0457416
0.0418324
0.0379072
0.0339951
0.0301291
0.026319
0.0225862
0.0189237
0.0153471
0.0118322
0.0083947
0.00500084
0.00167478
-0.0961155
-0.096195
-0.0962363
-0.0962839
-0.0963334
-0.0963875
-0.0964478
-0.096513
-0.0965816
-0.0966521
-0.0967231
-0.0967933
-0.0968612
-0.0969253
-0.0969845
-0.0970374
-0.0970829
-0.0971203
-0.0971486
-0.0971671
-0.0971756
-0.0971736
-0.0971613
-0.0971385
-0.0971058
-0.0970635
-0.0970127
-0.0969543
-0.0968898
-0.0968211
-0.0967511
-0.0966825
-0.0966186
-0.0965621
-0.0965148
-0.0964775
-0.096449
-0.0964256
-0.0963963
-0.0963364
-0.0962077
-0.0959506
-0.0954753
-0.0946639
-0.0933734
-0.0914402
-0.0887042
-0.0850467
-0.0803534
-0.0745425
-0.067608
-0.0596102
-0.0506493
-0.0408709
-0.0304621
-0.0195743
-0.00859183
0.00231062
0.012884
0.0229014
0.0321559
0.0404744
0.0477232
0.0538238
0.0587352
0.0624584
0.0650268
0.0665094
0.0669928
0.0665832
0.0653899
0.063532
0.0611204
0.0582676
0.0550688
0.0516182
0.0479879
0.0442499
0.0404516
0.0366448
0.0328539
0.0291149
0.0254321
0.0218307
0.018298
0.0148526
0.0114659
0.00815492
0.00487782
0.00165608
-0.0962077
-0.096276
-0.0962748
-0.0962932
-0.0963303
-0.096384
-0.0964488
-0.0965205
-0.0965964
-0.0966745
-0.0967531
-0.0968304
-0.0969047
-0.0969747
-0.0970389
-0.0970961
-0.0971449
-0.0971846
-0.0972142
-0.0972334
-0.0972417
-0.0972392
-0.0972256
-0.0972011
-0.0971656
-0.0971195
-0.0970629
-0.0969965
-0.0969209
-0.0968373
-0.0967466
-0.0966511
-0.0965549
-0.0964647
-0.0963888
-0.0963362
-0.0963151
-0.0963291
-0.0963733
-0.0964296
-0.0964572
-0.0963874
-0.0961095
-0.0954843
-0.0943591
-0.0925715
-0.0899489
-0.0863554
-0.0817078
-0.0759396
-0.0690536
-0.0611059
-0.0522007
-0.0424913
-0.0321612
-0.0214272
-0.0105722
0.000168349
0.0105555
0.0203665
0.0294009
0.0374976
0.0445321
0.0504308
0.0551585
0.0587234
0.0611644
0.0625546
0.0629826
0.0625572
0.0613869
0.0595901
0.0572737
0.0545474
0.0515019
0.0482283
0.0447936
0.0412673
0.0376924
0.0341187
0.0305672
0.0270724
0.0236365
0.020283
0.0169986
0.0137996
0.0106586
0.00758837
0.00454744
0.00154869
-0.0958789
-0.0960811
-0.0961668
-0.0962632
-0.0963529
-0.0964369
-0.09652
-0.0966056
-0.0966931
-0.0967812
-0.096868
-0.0969521
-0.097032
-0.097106
-0.0971729
-0.0972315
-0.0972805
-0.0973191
-0.0973464
-0.0973622
-0.0973664
-0.097359
-0.0973402
-0.0973103
-0.0972691
-0.0972168
-0.0971534
-0.0970789
-0.0969933
-0.0968971
-0.0967913
-0.0966778
-0.0965607
-0.0964494
-0.0963568
-0.0962967
-0.0962822
-0.0963209
-0.0964086
-0.0965212
-0.0966163
-0.0966293
-0.0964209
-0.0958522
-0.0947585
-0.0929814
-0.0903676
-0.0867913
-0.082164
-0.0764394
-0.0696239
-0.0617815
-0.0530246
-0.04351
-0.0334315
-0.0230104
-0.0125
-0.00214574
0.0078204
0.0171873
0.0257693
0.0334196
0.0400292
0.0455355
0.0499145
0.0531841
0.055391
0.0566131
0.0569414
0.0564839
0.0553468
0.0536436
0.0514755
0.0489456
0.0461377
0.0431357
0.0400007
0.0367955
0.0335589
0.0303346
0.0271414
0.0240085
0.0209384
0.017949
0.0150298
0.0121912
0.00941109
0.00669498
0.00401059
0.00136312
-0.0967189
-0.0967361
-0.0966268
-0.0965721
-0.0965724
-0.0966203
-0.0966984
-0.0967896
-0.0968827
-0.0969743
-0.0970625
-0.0971458
-0.0972229
-0.0972925
-0.0973536
-0.0974052
-0.0974464
-0.0974763
-0.0974945
-0.0975009
-0.0974958
-0.0974796
-0.0974528
-0.0974156
-0.0973679
-0.0973096
-0.0972408
-0.0971612
-0.0970701
-0.0969675
-0.0968543
-0.0967326
-0.0966042
-0.0964846
-0.096388
-0.096327
-0.0963136
-0.0963538
-0.0964417
-0.0965484
-0.0966171
-0.0965654
-0.0962825
-0.0956262
-0.0944394
-0.0925692
-0.0898746
-0.0862409
-0.0815927
-0.0758987
-0.0691755
-0.0614952
-0.052979
-0.0437903
-0.0341262
-0.024208
-0.0142714
-0.00454933
0.00474204
0.0134108
0.0212935
0.028264
0.0342345
0.0391601
0.0430328
0.0458824
0.0477649
0.0487619
0.0489648
0.0484777
0.0474011
0.0458395
0.0438858
0.0416316
0.039152
0.0365196
0.0337883
0.0310109
0.0282212
0.0254545
0.0227277
0.0200626
0.0174626
0.0149395
0.0124861
0.0101069
0.00778629
0.00552407
0.00329856
0.00111011
-0.09536
-0.0960179
-0.0962185
-0.0964697
-0.0966787
-0.0968348
-0.0969492
-0.097041
-0.097124
-0.0972018
-0.0972749
-0.0973425
-0.0974036
-0.0974574
-0.0975031
-0.09754
-0.0975675
-0.0975845
-0.0975906
-0.0975861
-0.0975712
-0.0975462
-0.0975118
-0.097468
-0.0974141
-0.0973505
-0.0972785
-0.0971969
-0.0971045
-0.0970013
-0.0968881
-0.0967672
-0.0966414
-0.0965154
-0.0964029
-0.0963192
-0.0962724
-0.0962617
-0.0962738
-0.0962758
-0.0962103
-0.0959949
-0.0955179
-0.094646
-0.0932358
-0.0911493
-0.0882654
-0.0844909
-0.0797687
-0.0740849
-0.0674721
-0.0600139
-0.0518402
-0.043119
-0.0340454
-0.0248329
-0.0156997
-0.00685557
0.00151137
0.00923947
0.0161966
0.0222851
0.0274443
0.0316514
0.0349166
0.0372807
0.038806
0.039573
0.0396696
0.0391903
0.0382264
0.0368688
0.035199
0.0332941
0.0312185
0.0290313
0.0267785
0.0245016
0.0222292
0.0199876
0.0177917
0.015656
0.0135848
0.0115843
0.00965101
0.00778483
0.00597624
0.00422133
0.00250785
0.000833413
-0.100086
-0.0987191
-0.0980872
-0.0976479
-0.0974143
-0.0973173
-0.0972969
-0.0973113
-0.097339
-0.0973729
-0.0974097
-0.0974469
-0.0974827
-0.0975156
-0.0975443
-0.0975672
-0.0975835
-0.09759
-0.0975872
-0.097576
-0.0975563
-0.0975279
-0.0974909
-0.0974453
-0.0973896
-0.0973207
-0.0972381
-0.0971439
-0.0970368
-0.096915
-0.0967778
-0.0966263
-0.0964631
-0.096294
-0.096127
-0.0959694
-0.095823
-0.0956804
-0.0955213
-0.0953083
-0.0949822
-0.0944619
-0.0936449
-0.0924143
-0.0906484
-0.0882325
-0.0850721
-0.0811021
-0.07629
-0.0706433
-0.0642121
-0.0570899
-0.0494085
-0.0413325
-0.0330472
-0.0247478
-0.016626
-0.00886246
-0.0016109
0.00500606
0.0108944
0.01599
0.0202615
0.0237074
0.0263525
0.0282431
0.0294409
0.0300188
0.0300551
0.029631
0.0288258
0.0277153
0.0263681
0.0248461
0.0232027
0.0214838
0.0197277
0.0179656
0.0162215
0.0145133
0.012854
0.0112517
0.00971171
0.00823545
0.00682294
0.00547061
0.00417482
0.00292876
0.00172711
0.000562867
-0.0942212
-0.0953354
-0.0961794
-0.0967912
-0.0971033
-0.0972135
-0.0972377
-0.0972384
-0.0972424
-0.0972604
-0.0972873
-0.0973172
-0.097347
-0.0973755
-0.0974013
-0.0974231
-0.0974403
-0.0974519
-0.0974511
-0.0974373
-0.097413
-0.0973778
-0.0973298
-0.0972672
-0.0971877
-0.0970893
-0.0969704
-0.0968301
-0.0966665
-0.0964775
-0.0962612
-0.0960171
-0.0957459
-0.0954494
-0.0951297
-0.0947873
-0.0944177
-0.094008
-0.0935332
-0.0929549
-0.0922192
-0.0912546
-0.0899761
-0.0882905
-0.0861043
-0.0833323
-0.0799057
-0.0757812
-0.0709511
-0.0654457
-0.0593317
-0.0527098
-0.0457091
-0.0384809
-0.0311873
-0.0239918
-0.0170473
-0.0104923
-0.00444214
0.00101277
0.00581326
0.00992568
0.0133425
0.0160759
0.0181582
0.0196338
0.0205579
0.0209912
0.0209999
0.0206517
0.0200142
0.0191501
0.0181165
0.0169617
0.0157287
0.0144521
0.0131628
0.0118829
0.0106325
0.00942212
0.00826352
0.00715877
0.00611454
0.00512708
0.00420031
0.00332639
0.00250849
0.00173606
0.00101238
0.000323996
-0.116995
-0.102055
-0.100109
-0.0986212
-0.0976963
-0.0972581
-0.0970736
-0.0969987
-0.096962
-0.0969485
-0.096968
-0.0970108
-0.0970603
-0.0971065
-0.0971457
-0.0971766
-0.0971974
-0.0972048
-0.0971942
-0.0971633
-0.0971116
-0.0970375
-0.0969384
-0.0968111
-0.0966525
-0.0964593
-0.0962286
-0.0959572
-0.0956426
-0.0952832
-0.0948773
-0.0944232
-0.0939203
-0.0933681
-0.0927656
-0.0921097
-0.091393
-0.0906008
-0.0897088
-0.0886792
-0.0874618
-0.0859981
-0.0842243
-0.0820746
-0.0794868
-0.0764081
-0.0728022
-0.0686554
-0.0639812
-0.0588216
-0.0532446
-0.047342
-0.0412251
-0.0350192
-0.0288543
-0.0228573
-0.0171429
-0.0118101
-0.00693906
-0.00259102
0.00120069
0.00442153
0.00707535
0.00917919
0.0107661
0.0118765
0.0125587
0.0128624
0.0128438
0.0125592
0.0120675
0.0114203
0.0106653
0.00983974
0.00897738
0.0081019
0.00723688
0.0063952
0.00559272
0.00483337
0.00412819
0.00347395
0.00287891
0.00233348
0.00184577
0.00140226
0.00101409
0.000664838
0.00036876
0.000102448
-0.0844225
-0.0909383
-0.0934565
-0.0942843
-0.0947081
-0.0950841
-0.0954297
-0.095716
-0.0959609
-0.0961715
-0.0963479
-0.0964924
-0.0966089
-0.0967006
-0.096769
-0.0968134
-0.096831
-0.0968175
-0.0967687
-0.0966805
-0.09655
-0.096375
-0.0961528
-0.0958809
-0.0955564
-0.0951769
-0.0947395
-0.0942418
-0.0936808
-0.0930526
-0.0923547
-0.0915863
-0.0907469
-0.0898356
-0.0888508
-0.0877883
-0.0866403
-0.0853936
-0.0840279
-0.0825154
-0.0808211
-0.0789056
-0.0767274
-0.0742465
-0.0714276
-0.0682442
-0.0646823
-0.0607445
-0.0564518
-0.0518437
-0.0469765
-0.0419222
-0.0367682
-0.0316115
-0.026553
-0.0216914
-0.0171153
-0.0128976
-0.00908973
-0.00572506
-0.00282005
-0.000379682
0.00160405
0.00314978
0.00429022
0.00506379
0.0055152
0.00568853
0.0056333
0.00539721
0.00503002
0.00457347
0.00406701
0.00353876
0.00301443
0.00250804
0.00203406
0.00159568
0.00120161
0.000850105
0.00055072
0.000297036
9.79871e-05
-6.02791e-05
-0.000166509
-0.00023934
-0.000260006
-0.000251754
-0.000187919
-0.000101472
-0.0783117
-0.08611
-0.0901079
-0.0915379
-0.0919637
-0.0922809
-0.0927513
-0.0933338
-0.093914
-0.0944175
-0.0948247
-0.0951458
-0.0953991
-0.0955986
-0.0957504
-0.0958539
-0.0959044
-0.0958953
-0.0958205
-0.0956746
-0.0954537
-0.0951552
-0.0947774
-0.0943191
-0.0937793
-0.0931574
-0.0924527
-0.0916646
-0.0907925
-0.0898359
-0.0887949
-0.0876706
-0.0864637
-0.0851751
-0.0838041
-0.0823483
-0.0808028
-0.0791591
-0.0774047
-0.0755229
-0.0734928
-0.07129
-0.0688889
-0.0662661
-0.0634021
-0.0602841
-0.0569091
-0.0532856
-0.0494354
-0.0453951
-0.0412153
-0.0369578
-0.0326893
-0.0284808
-0.0244062
-0.0205395
-0.0169475
-0.0136826
-0.0107805
-0.00826239
-0.00613453
-0.0043882
-0.00300352
-0.00195672
-0.00121713
-0.000748787
-0.000508116
-0.000448803
-0.000521887
-0.000686392
-0.00090656
-0.00115547
-0.00140607
-0.00163867
-0.00183531
-0.00198963
-0.00209684
-0.00216291
-0.0021895
-0.00218277
-0.00213758
-0.00206016
-0.00194354
-0.00179974
-0.00161735
-0.00141335
-0.00116557
-0.000898133
-0.000575681
-0.000237149
-0.0679995
-0.0752196
-0.0805639
-0.0840287
-0.0861343
-0.0875464
-0.088715
-0.0898187
-0.0908692
-0.0918215
-0.0926391
-0.093313
-0.0938537
-0.0942778
-0.094598
-0.0948197
-0.0949426
-0.0949628
-0.0948756
-0.0946771
-0.0943644
-0.0939365
-0.0933939
-0.0927376
-0.0919699
-0.0910932
-0.0901102
-0.0890239
-0.0878372
-0.0865533
-0.085175
-0.0837054
-0.0821472
-0.0805027
-0.0787733
-0.0769591
-0.0750587
-0.0730687
-0.0709836
-0.068796
-0.0664967
-0.064076
-0.0615229
-0.0588263
-0.0559769
-0.0529692
-0.0498043
-0.0464912
-0.0430496
-0.0395114
-0.0359219
-0.0323369
-0.0288169
-0.0254224
-0.0222079
-0.0192178
-0.016486
-0.0140413
-0.0119123
-0.0101236
-0.00867859
-0.00754662
-0.00667813
-0.00603296
-0.00558664
-0.00531803
-0.00519156
-0.00515518
-0.00515537
-0.00515938
-0.00515488
-0.00514031
-0.00511022
-0.00505669
-0.0049687
-0.00484226
-0.0046759
-0.00447504
-0.00424154
-0.00398264
-0.00370003
-0.00340016
-0.00308144
-0.00274982
-0.0023984
-0.00203357
-0.00163879
-0.00122603
-0.000764763
-0.000287333
-0.0626522
-0.0692697
-0.0747273
-0.0789172
-0.0819638
-0.0841806
-0.0859113
-0.0873957
-0.0887421
-0.0899681
-0.0910541
-0.0919801
-0.09274
-0.0933391
-0.0937871
-0.094091
-0.0942536
-0.0942737
-0.0941484
-0.0938747
-0.093451
-0.0928775
-0.0921565
-0.0912914
-0.0902872
-0.0891496
-0.0878846
-0.086499
-0.084999
-0.083391
-0.0816804
-0.0798726
-0.0779723
-0.0759838
-0.0739108
-0.0717567
-0.0695242
-0.0672152
-0.064831
-0.0623729
-0.0598413
-0.0572375
-0.054562
-0.0518148
-0.0489961
-0.0461072
-0.0431512
-0.0401352
-0.037072
-0.0339847
-0.0309111
-0.0279057
-0.0250362
-0.0223669
-0.01994
-0.0177645
-0.0158209
-0.0140921
-0.0125983
-0.0113868
-0.0104768
-0.00982144
-0.00932105
-0.00889969
-0.00854823
-0.00828868
-0.00811753
-0.00798985
-0.00785147
-0.00766852
-0.00743404
-0.00716301
-0.0068761
-0.00658622
-0.00629347
-0.00599334
-0.0056801
-0.00535207
-0.00500772
-0.00464933
-0.00427705
-0.00389435
-0.00350091
-0.00309907
-0.00268573
-0.0022598
-0.00181335
-0.00134369
-0.000836159
-0.00029883
-0.0580423
-0.0642942
-0.0697297
-0.0742497
-0.077859
-0.0806915
-0.0829595
-0.084865
-0.0865417
-0.0880488
-0.0893943
-0.0905648
-0.091547
-0.0923354
-0.0929315
-0.093339
-0.0935606
-0.0935968
-0.0934466
-0.0931088
-0.0925837
-0.0918733
-0.0909819
-0.0899154
-0.0886818
-0.0872897
-0.0857493
-0.0840706
-0.082264
-0.0803387
-0.0783034
-0.0761659
-0.0739334
-0.0716127
-0.0692104
-0.0667336
-0.0641896
-0.0615863
-0.058932
-0.0562354
-0.0535057
-0.0507524
-0.0479862
-0.0452179
-0.0424581
-0.0397164
-0.0369994
-0.0343113
-0.0316545
-0.0290358
-0.0264731
-0.0240101
-0.0217227
-0.0196936
-0.0179715
-0.0165268
-0.0152627
-0.0141015
-0.0130505
-0.0121843
-0.011561
-0.0111465
-0.0108138
-0.0104476
-0.0100298
-0.00962185
-0.00926865
-0.00895416
-0.00865854
-0.00836781
-0.0080656
-0.00774078
-0.00739689
-0.00704181
-0.00667939
-0.00631105
-0.00593703
-0.00555777
-0.00517251
-0.00478122
-0.00438333
-0.00397987
-0.00357031
-0.00315511
-0.0027312
-0.00229568
-0.00184183
-0.00136261
-0.000850067
-0.00029678
-0.0543813
-0.0604168
-0.0658184
-0.0705068
-0.0744576
-0.0777243
-0.0804295
-0.0827204
-0.0847192
-0.0864986
-0.0880855
-0.0894775
-0.0906618
-0.0916264
-0.0923647
-0.0928742
-0.0931543
-0.0932045
-0.0930245
-0.0926153
-0.09198
-0.0911235
-0.0900535
-0.0887789
-0.0873109
-0.0856618
-0.0838449
-0.081874
-0.0797627
-0.0775239
-0.0751699
-0.0727113
-0.0701586
-0.0675214
-0.0648101
-0.0620356
-0.0592108
-0.0563502
-0.0534703
-0.0505881
-0.0477208
-0.0448842
-0.0420951
-0.039373
-0.0367399
-0.0342127
-0.0317987
-0.0294957
-0.0272936
-0.0251783
-0.0231392
-0.0211931
-0.0193985
-0.0178467
-0.016622
-0.0156786
-0.0148743
-0.0140953
-0.0133281
-0.0126201
-0.0120059
-0.0115274
-0.011141
-0.0107773
-0.0104197
-0.0100932
-0.00975854
-0.00939512
-0.00900024
-0.00858339
-0.00816263
-0.00775639
-0.00736913
-0.00699847
-0.0066388
-0.00628237
-0.00592238
-0.00555453
-0.00517729
-0.00479
-0.00439289
-0.00398758
-0.00357515
-0.00315611
-0.00272852
-0.00228917
-0.00183241
-0.00135205
-0.000841192
-0.000292212
-0.0514333
-0.0573525
-0.0627317
-0.0675048
-0.0716511
-0.0752031
-0.0782379
-0.0808551
-0.0831495
-0.0851887
-0.0870065
-0.0886088
-0.0899857
-0.0911217
-0.092003
-0.0926198
-0.0929655
-0.0930364
-0.092831
-0.0923513
-0.0916036
-0.0905979
-0.0893465
-0.0878631
-0.0861631
-0.0842628
-0.0821795
-0.0799309
-0.0775348
-0.0750078
-0.0723659
-0.0696236
-0.0667945
-0.0638918
-0.0609295
-0.0579229
-0.0548901
-0.0518527
-0.0488361
-0.0458681
-0.0429762
-0.0401806
-0.0374916
-0.0349303
-0.0325228
-0.0302826
-0.0282046
-0.0262739
-0.0244708
-0.0227707
-0.021174
-0.0196979
-0.0183388
-0.0171393
-0.0161241
-0.0152803
-0.0145624
-0.0139399
-0.0134306
-0.013038
-0.012684
-0.0122288
-0.0116446
-0.011017
-0.0104544
-0.00997524
-0.00957801
-0.00922451
-0.00887527
-0.00851518
-0.00814436
-0.00776619
-0.00739144
-0.00702283
-0.00665758
-0.00629217
-0.0059234
-0.00554911
-0.00516668
-0.00477529
-0.00437534
-0.00396784
-0.00355342
-0.00313194
-0.00270161
-0.00225937
-0.00180095
-0.00132255
-0.000820572
-0.000286477
-0.0490076
-0.0548917
-0.0602621
-0.0650743
-0.0693289
-0.0730652
-0.0763433
-0.0792316
-0.0817949
-0.0840846
-0.086131
-0.0879428
-0.0895121
-0.0908219
-0.0918528
-0.0925875
-0.0930126
-0.0931196
-0.0929041
-0.0923676
-0.0915193
-0.0903742
-0.0889513
-0.087272
-0.085359
-0.0832355
-0.0809248
-0.0784499
-0.0758325
-0.0730928
-0.0702496
-0.0673197
-0.0643189
-0.0612626
-0.0581668
-0.055049
-0.0519304
-0.048836
-0.0457965
-0.0428471
-0.0400264
-0.037366
-0.0348781
-0.0325752
-0.0304637
-0.028532
-0.0267443
-0.02505
-0.0234193
-0.0218671
-0.0204581
-0.019266
-0.0183532
-0.0176833
-0.0170646
-0.0163081
-0.0153822
-0.0143956
-0.0135371
-0.0128706
-0.0123544
-0.0118983
-0.0114392
-0.0109686
-0.0105092
-0.0100846
-0.00969484
-0.00931759
-0.00893795
-0.00855201
-0.00816417
-0.00778033
-0.00740236
-0.00702961
-0.00666016
-0.00629094
-0.00591883
-0.00554147
-0.0051572
-0.00476509
-0.00436491
-0.00395682
-0.00354087
-0.00311656
-0.00268233
-0.00223566
-0.00177382
-0.00129612
-0.000802441
-0.000280944
-0.0474479
-0.0532896
-0.0586175
-0.0634229
-0.0677297
-0.0715792
-0.0750232
-0.0781133
-0.0808924
-0.0833961
-0.0856455
-0.0876457
-0.0893873
-0.0908514
-0.0920155
-0.0928577
-0.0933593
-0.0935072
-0.0932949
-0.0927236
-0.0918011
-0.0905438
-0.088976
-0.087128
-0.0850333
-0.0827258
-0.080238
-0.0775999
-0.0748381
-0.0719756
-0.0690324
-0.0660258
-0.0629708
-0.0598818
-0.0567734
-0.0536617
-0.050566
-0.0475105
-0.0445261
-0.0416499
-0.0389279
-0.0364066
-0.0341332
-0.0321307
-0.0303838
-0.0288355
-0.0273915
-0.025956
-0.0244518
-0.0228689
-0.0212687
-0.0197714
-0.0184965
-0.0174787
-0.0166259
-0.0158429
-0.0150695
-0.0143262
-0.0136536
-0.0130778
-0.0125738
-0.0120806
-0.0115742
-0.0110639
-0.0105761
-0.0101259
-0.00971003
-0.00931666
-0.00893324
-0.00855254
-0.00817237
-0.00779335
-0.00741698
-0.00704338
-0.00667134
-0.00629878
-0.00592353
-0.00554373
-0.00515796
-0.00476519
-0.00436475
-0.00395612
-0.00353868
-0.0031116
-0.00267365
-0.00222311
-0.00175856
-0.00128094
-0.000791668
-0.000277872
-0.046518
-0.0523733
-0.0576971
-0.0625157
-0.066869
-0.0708009
-0.074357
-0.0775826
-0.0805174
-0.0831859
-0.0855974
-0.0877488
-0.0896268
-0.0912113
-0.092479
-0.0934068
-0.0939749
-0.0941695
-0.093985
-0.0934248
-0.0925016
-0.0912366
-0.0896575
-0.0877968
-0.0856894
-0.0833705
-0.0808739
-0.0782308
-0.0754687
-0.0726118
-0.0696804
-0.0666918
-0.0636612
-0.0606022
-0.0575283
-0.0544541
-0.0513962
-0.0483751
-0.0454164
-0.042551
-0.0398151
-0.037247
-0.0348786
-0.0327255
-0.0307824
-0.0290232
-0.0273986
-0.0258153
-0.0242394
-0.0226741
-0.0211758
-0.0198333
-0.0187024
-0.017771
-0.0169394
-0.0161174
-0.0152834
-0.0144715
-0.0137443
-0.0131198
-0.01257
-0.0120535
-0.0115495
-0.0110595
-0.0105943
-0.0101576
-0.00974552
-0.00934864
-0.00895928
-0.00857379
-0.00819152
-0.00781284
-0.00743773
-0.00706518
-0.0066935
-0.00632068
-0.00594484
-0.00556445
-0.00517836
-0.00478574
-0.00438582
-0.00397775
-0.00356045
-0.00313268
-0.00269311
-0.00224041
-0.00177362
-0.00129308
-0.000799391
-0.000282413
)
;

boundaryField
{
    fixedWalls
    {
        type            zeroGradient;
    }
    inflowWall
    {
        type            zeroGradient;
    }
    outflowWall
    {
        type            fixedValue;
        value           uniform 0;
    }
    frontAndBack
    {
        type            empty;
    }
}


// ************************************************************************* //
