/*--------------------------------*- C++ -*----------------------------------*\
| =========                 |                                                 |
| \\      /  F ield         | OpenFOAM: The Open Source CFD Toolbox           |
|  \\    /   O peration     | Version:  2306                                  |
|   \\  /    A nd           | Website:  www.openfoam.com                      |
|    \\/     M anipulation  |                                                 |
\*---------------------------------------------------------------------------*/
FoamFile
{
    version     2.0;
    format      ascii;
    arch        "LSB;label=32;scalar=64";
    class       surfaceScalarField;
    location    "3";
    object      phi;
}
// * * * * * * * * * * * * * * * * * * * * * * * * * * * * * * * * * * * * * //

dimensions      [0 3 -1 0 0 0 0];

oriented        oriented;

internalField   nonuniform List<scalar> 
3680
(
4.93473e-05
6.52742e-07
4.79744e-05
1.37282e-06
4.66991e-05
1.27532e-06
4.52627e-05
1.4364e-06
4.41267e-05
1.13601e-06
4.27245e-05
1.40219e-06
4.17443e-05
9.80253e-07
4.04466e-05
1.2977e-06
3.98238e-05
6.22716e-07
9.76882e-07
3.8847e-05
5.03392e-05
3.13587e-07
5.08683e-05
8.43683e-07
5.11328e-05
1.01084e-06
5.1467e-05
1.10222e-06
5.15953e-05
1.0077e-06
5.19806e-05
1.01682e-06
5.20678e-05
8.93107e-07
5.25236e-05
8.41919e-07
5.25196e-05
6.26655e-07
4.16745e-07
5.30798e-05
5.01633e-05
1.50264e-07
5.05557e-05
4.51331e-07
5.09765e-05
5.89976e-07
5.14207e-05
6.58083e-07
5.18184e-05
6.09951e-07
5.22702e-05
5.64999e-07
5.26983e-05
4.65096e-07
5.31683e-05
3.71872e-07
5.35871e-05
2.07836e-07
-6.74566e-09
5.40106e-05
5.00932e-05
5.70221e-08
5.03765e-05
1.68034e-07
5.07344e-05
2.32121e-07
5.11468e-05
2.45687e-07
5.15507e-05
2.0607e-07
5.19736e-05
1.42058e-07
5.23848e-05
5.38699e-08
5.28147e-05
-5.80012e-08
5.32252e-05
-2.02687e-07
-3.76504e-07
5.3595e-05
5.00738e-05
-1.67817e-08
5.02913e-05
-4.94684e-08
5.06111e-05
-8.76825e-08
5.09887e-05
-1.31949e-07
5.13803e-05
-1.85459e-07
5.17744e-05
-2.52021e-07
5.21655e-05
-3.37273e-07
5.25511e-05
-4.43614e-07
5.29201e-05
-5.71688e-07
-7.21339e-07
5.32649e-05
5.00731e-05
-8.99198e-08
5.02828e-05
-2.59144e-07
5.05975e-05
-4.02374e-07
5.09648e-05
-4.99219e-07
5.13436e-05
-5.64311e-07
5.17204e-05
-6.28812e-07
5.20896e-05
-7.0648e-07
5.24496e-05
-8.03638e-07
5.27979e-05
-9.19986e-07
-1.05129e-06
5.31279e-05
5.00941e-05
-1.84064e-07
5.03553e-05
-5.20346e-07
5.06977e-05
-7.44753e-07
5.10672e-05
-8.68735e-07
5.1439e-05
-9.36089e-07
5.1802e-05
-9.91798e-07
5.21576e-05
-1.06211e-06
5.25075e-05
-1.15352e-06
5.28465e-05
-1.25895e-06
-1.37028e-06
5.31655e-05
5.01664e-05
-3.50468e-07
5.05177e-05
-8.71654e-07
5.09201e-05
-1.1471e-06
5.12982e-05
-1.2469e-06
5.16462e-05
-1.28405e-06
5.19824e-05
-1.32801e-06
5.23147e-05
-1.39442e-06
5.26341e-05
-1.47291e-06
5.29267e-05
-1.55149e-06
-1.62476e-06
5.31811e-05
5.03675e-05
-7.17993e-07
5.08e-05
-1.30415e-06
5.10982e-05
-1.44526e-06
5.12749e-05
-1.42358e-06
5.14023e-05
-1.41145e-06
5.14994e-05
-1.42513e-06
5.15487e-05
-1.44371e-06
5.15333e-05
-1.45756e-06
5.14448e-05
-1.46304e-06
-1.46357e-06
5.12837e-05
4.9282e-05
4.79779e-05
4.65326e-05
4.5109e-05
4.36976e-05
4.22724e-05
4.08287e-05
3.93712e-05
3.79081e-05
3.64446e-05
1.21693e-08
-1.21693e-08
5.98108e-09
6.18834e-09
-1.45267e-08
2.05078e-08
-4.38084e-08
2.92816e-08
-7.86383e-08
3.483e-08
-1.17785e-07
3.9147e-08
-1.61302e-07
4.35163e-08
-2.09353e-07
4.80511e-08
-2.6183e-07
5.24774e-08
-3.18412e-07
5.65818e-08
-3.78714e-07
6.03024e-08
-4.42373e-07
6.36584e-08
-5.09058e-07
6.66854e-08
-5.78472e-07
6.94138e-08
-6.50345e-07
7.18734e-08
-7.24445e-07
7.40995e-08
-8.00581e-07
7.61361e-08
-8.78617e-07
7.80361e-08
-9.58471e-07
7.98543e-08
-1.04011e-06
8.164e-08
-1.12355e-06
8.34402e-08
-1.20884e-06
8.52883e-08
-1.29604e-06
8.71968e-08
-1.38519e-06
8.91575e-08
-1.47634e-06
9.11455e-08
-1.56947e-06
9.31271e-08
-1.66455e-06
9.50798e-08
-1.76159e-06
9.70426e-08
-1.8608e-06
9.92114e-08
-1.96287e-06
1.02074e-07
-2.06942e-06
1.06544e-07
-2.18351e-06
1.14091e-07
-2.31036e-06
1.26851e-07
-2.45793e-06
1.47572e-07
-2.63729e-06
1.79359e-07
-2.8625e-06
2.25214e-07
-3.14968e-06
2.87177e-07
-3.51486e-06
3.65173e-07
-3.97069e-06
4.55831e-07
-4.52272e-06
5.52033e-07
-5.16651e-06
6.43795e-07
-5.88631e-06
7.19791e-07
-6.65599e-06
7.69685e-07
-7.44237e-06
7.86378e-07
-8.20916e-06
7.66791e-07
-8.92144e-06
7.12282e-07
-9.55038e-06
6.28934e-07
-1.00641e-05
5.13772e-07
-1.04417e-05
3.77506e-07
-1.06708e-05
2.29111e-07
-1.07389e-05
6.81366e-08
-1.06466e-05
-9.22722e-08
-1.0398e-05
-2.48651e-07
-9.99555e-06
-4.02432e-07
-9.44668e-06
-5.48867e-07
-8.76131e-06
-6.85365e-07
-7.95647e-06
-8.04846e-07
-7.04622e-06
-9.10246e-07
-6.04709e-06
-9.99133e-07
-4.97673e-06
-1.07036e-06
-3.85341e-06
-1.12332e-06
-2.69731e-06
-1.15609e-06
-1.52611e-06
-1.17121e-06
-3.56483e-07
-1.16962e-06
7.96939e-07
-1.15342e-06
1.92004e-06
-1.12311e-06
3.00109e-06
-1.08105e-06
4.02961e-06
-1.02852e-06
4.99625e-06
-9.66641e-07
5.89459e-06
-8.98339e-07
6.71983e-06
-8.25244e-07
7.46955e-06
-7.49712e-07
8.14226e-06
-6.72711e-07
8.73887e-06
-5.96615e-07
9.2605e-06
-5.21624e-07
9.71066e-06
-4.50162e-07
1.00922e-05
-3.81574e-07
1.04107e-05
-3.18483e-07
1.067e-05
-2.5926e-07
1.08769e-05
-2.06976e-07
1.10358e-05
-1.58832e-07
1.11545e-05
-1.18725e-07
1.12368e-05
-8.23118e-08
1.12918e-05
-5.49573e-08
1.13218e-05
-3.00723e-08
1.13372e-05
-1.53253e-08
1.13381e-05
-9.28344e-10
1.13369e-05
1.24174e-09
1.13301e-05
6.80849e-09
-2.21119e-09
-1.30875e-08
9.18093e-10
-6.7824e-08
6.09249e-08
-1.516e-07
1.04284e-07
-2.55551e-07
1.33232e-07
-3.74297e-07
1.53576e-07
-5.05527e-07
1.70376e-07
-6.48275e-07
1.86264e-07
-8.01825e-07
2.01601e-07
-9.65248e-07
2.15901e-07
-1.13746e-06
2.28791e-07
-1.31737e-06
2.40219e-07
-1.50402e-06
2.50302e-07
-1.69653e-06
2.59201e-07
-1.8942e-06
2.67078e-07
-2.09642e-06
2.741e-07
-2.30278e-06
2.80454e-07
-2.51299e-06
2.86347e-07
-2.72696e-06
2.92011e-07
-2.9448e-06
2.97686e-07
-3.16676e-06
3.036e-07
-3.39331e-06
3.0999e-07
-3.6251e-06
3.17087e-07
-3.86302e-06
3.25116e-07
-4.10817e-06
3.34307e-07
-4.36195e-06
3.44926e-07
-4.62612e-06
3.57294e-07
-4.90285e-06
3.71812e-07
-5.19483e-06
3.89021e-07
-5.5053e-06
4.09686e-07
-5.83815e-06
4.34924e-07
-6.19789e-06
4.66282e-07
-6.58947e-06
5.05665e-07
-7.01787e-06
5.55257e-07
-7.48747e-06
6.1717e-07
-8.00101e-06
6.92897e-07
-8.55848e-06
7.8269e-07
-9.15596e-06
8.84652e-07
-9.7847e-06
9.93915e-07
-1.04309e-05
1.10199e-06
-1.10758e-05
1.19694e-06
-1.16974e-05
1.26548e-06
-1.22723e-05
1.29462e-06
-1.27763e-05
1.27376e-06
-1.31873e-05
1.19732e-06
-1.34853e-05
1.06483e-06
-1.36528e-05
8.798e-07
-1.36736e-05
6.49685e-07
-1.35422e-05
3.82362e-07
-1.32431e-05
7.84148e-08
-1.27892e-05
-2.24818e-07
-1.21836e-05
-5.37386e-07
-1.14223e-05
-8.53621e-07
-1.05077e-05
-1.16326e-06
-9.45093e-06
-1.45918e-06
-8.26343e-06
-1.73636e-06
-6.95533e-06
-1.99346e-06
-5.5466e-06
-2.21358e-06
-4.05136e-06
-2.40549e-06
-2.48612e-06
-2.56437e-06
-8.69556e-07
-2.68692e-06
7.78972e-07
-2.77185e-06
2.4434e-06
-2.82053e-06
4.10885e-06
-2.83665e-06
5.7585e-06
-2.81928e-06
7.37812e-06
-2.77304e-06
8.95417e-06
-2.69915e-06
1.04755e-05
-2.60242e-06
1.19321e-05
-2.48508e-06
1.33173e-05
-2.35186e-06
1.46249e-05
-2.2059e-06
1.58512e-05
-2.05159e-06
1.69934e-05
-1.89188e-06
1.80508e-05
-1.7301e-06
1.90231e-05
-1.56893e-06
1.99121e-05
-1.41065e-06
2.07196e-05
-1.25762e-06
2.1449e-05
-1.11102e-06
2.21036e-05
-9.72997e-07
2.2688e-05
-8.43675e-07
2.32062e-05
-7.25166e-07
2.36639e-05
-6.1658e-07
2.40654e-05
-5.20194e-07
2.44172e-05
-4.34177e-07
2.47234e-05
-3.61096e-07
2.49916e-05
-2.98269e-07
2.52248e-05
-2.48579e-07
2.54323e-05
-2.08394e-07
2.5615e-05
-1.81467e-07
2.57842e-05
-1.62403e-07
-1.53758e-07
-4.78275e-08
4.87456e-08
-1.80434e-07
1.93531e-07
-3.58069e-07
2.8192e-07
-5.61838e-07
3.37001e-07
-7.8259e-07
3.74329e-07
-1.01761e-06
4.05396e-07
-1.26633e-06
4.34982e-07
-1.52695e-06
4.62224e-07
-1.79739e-06
4.86339e-07
-2.07562e-06
5.0702e-07
-2.35985e-06
5.24449e-07
-2.64854e-06
5.38997e-07
-2.94042e-06
5.51082e-07
-3.23448e-06
5.61136e-07
-3.52997e-06
5.69593e-07
-3.82641e-06
5.76889e-07
-4.12352e-06
5.83457e-07
-4.42125e-06
5.89743e-07
-4.71976e-06
5.96192e-07
-5.01928e-06
6.03123e-07
-5.32022e-06
6.10927e-07
-5.62306e-06
6.19933e-07
-5.92835e-06
6.30404e-07
-6.23662e-06
6.42573e-07
-6.54837e-06
6.5668e-07
-6.86407e-06
6.72995e-07
-7.18408e-06
6.91818e-07
-7.50858e-06
7.13523e-07
-7.83739e-06
7.38496e-07
-8.17006e-06
7.6759e-07
-8.50582e-06
8.02043e-07
-8.84306e-06
8.4291e-07
-9.17918e-06
8.91377e-07
-9.51026e-06
9.48248e-07
-9.8305e-06
1.01314e-06
-1.0132e-05
1.0842e-06
-1.04047e-05
1.15734e-06
-1.06371e-05
1.22628e-06
-1.0816e-05
1.28096e-06
-1.09267e-05
1.30759e-06
-1.0956e-05
1.29483e-06
-1.08929e-05
1.23147e-06
-1.07277e-05
1.10854e-06
-1.04533e-05
9.22922e-07
-1.00655e-05
6.7707e-07
-9.56193e-06
3.76198e-07
-8.93436e-06
2.21146e-08
-8.19676e-06
-3.55241e-07
-7.35223e-06
-7.6611e-07
-6.38448e-06
-1.19258e-06
-5.30044e-06
-1.62143e-06
-4.1096e-06
-2.04446e-06
-2.81766e-06
-2.4552e-06
-1.43206e-06
-2.84478e-06
4.12513e-08
-3.20967e-06
1.5764e-06
-3.52861e-06
3.17755e-06
-3.81472e-06
4.82648e-06
-4.05442e-06
6.50997e-06
-4.24786e-06
8.21301e-06
-4.38996e-06
9.92375e-06
-4.48259e-06
1.16265e-05
-4.52325e-06
1.33081e-05
-4.51829e-06
1.49552e-05
-4.46642e-06
1.65571e-05
-4.37488e-06
1.81028e-05
-4.24486e-06
1.95851e-05
-4.08476e-06
2.09968e-05
-3.89677e-06
2.23344e-05
-3.68947e-06
2.35936e-05
-3.46508e-06
2.47739e-05
-3.2319e-06
2.58735e-05
-2.99148e-06
2.68946e-05
-2.75122e-06
2.78372e-05
-2.51152e-06
2.87055e-05
-2.27894e-06
2.95005e-05
-2.05262e-06
3.0228e-05
-1.83848e-06
3.08893e-05
-1.63432e-06
3.14914e-05
-1.4458e-06
3.20355e-05
-1.26929e-06
3.25296e-05
-1.11067e-06
3.29743e-05
-9.64812e-07
3.33784e-05
-8.38318e-07
3.37417e-05
-7.24353e-07
3.40742e-05
-6.30761e-07
3.43743e-05
-5.48749e-07
3.46537e-05
-4.8778e-07
3.4909e-05
-4.36782e-07
3.51538e-05
-4.07226e-07
-3.85769e-07
-1.32038e-07
1.80784e-07
-3.76515e-07
4.38008e-07
-6.60645e-07
5.6605e-07
-9.63023e-07
6.39379e-07
-1.28109e-06
6.92395e-07
-1.6128e-06
7.37103e-07
-1.95342e-06
7.75602e-07
-2.29858e-06
8.07387e-07
-2.64445e-06
8.32213e-07
-2.98814e-06
8.50709e-07
-3.32746e-06
8.63762e-07
-3.66054e-06
8.72082e-07
-3.98604e-06
8.76584e-07
-4.30298e-06
8.78078e-07
-4.61068e-06
8.77287e-07
-4.90866e-06
8.74866e-07
-5.1966e-06
8.71402e-07
-5.47429e-06
8.67428e-07
-5.74154e-06
8.63447e-07
-5.99828e-06
8.5986e-07
-6.24433e-06
8.56979e-07
-6.47942e-06
8.55021e-07
-6.70311e-06
8.54095e-07
-6.91475e-06
8.54219e-07
-7.11346e-06
8.55391e-07
-7.29812e-06
8.5765e-07
-7.46729e-06
8.60991e-07
-7.61918e-06
8.65413e-07
-7.75171e-06
8.71025e-07
-7.86226e-06
8.78144e-07
-7.9475e-06
8.87279e-07
-8.00341e-06
8.98824e-07
-8.02521e-06
9.1317e-07
-8.00747e-06
9.3051e-07
-7.94361e-06
9.49277e-07
-7.82604e-06
9.66635e-07
-7.64649e-06
9.77792e-07
-7.39599e-06
9.75773e-07
-7.06612e-06
9.51087e-07
-6.65107e-06
8.92551e-07
-6.14725e-06
7.91005e-07
-5.55372e-06
6.37939e-07
-4.86926e-06
4.24081e-07
-4.09459e-06
1.4825e-07
-3.23378e-06
-1.83733e-07
-2.28969e-06
-5.67899e-07
-1.26825e-06
-9.99318e-07
-1.61233e-07
-1.46226e-06
1.02495e-06
-1.95229e-06
2.28509e-06
-2.45272e-06
3.61946e-06
-2.9558e-06
5.02538e-06
-3.45038e-06
6.49857e-06
-3.92838e-06
8.03233e-06
-4.37854e-06
9.61716e-06
-4.7945e-06
1.12502e-05
-5.16164e-06
1.29155e-05
-5.48007e-06
1.46021e-05
-5.74103e-06
1.62975e-05
-5.9432e-06
1.79879e-05
-6.08043e-06
1.96614e-05
-6.15602e-06
2.1305e-05
-6.1669e-06
2.29071e-05
-6.12039e-06
2.44572e-05
-6.01653e-06
2.59471e-05
-5.86478e-06
2.73692e-05
-5.66691e-06
2.87188e-05
-5.43437e-06
2.99915e-05
-5.16945e-06
3.11862e-05
-4.88413e-06
3.2301e-05
-4.57989e-06
3.33376e-05
-4.26849e-06
3.4296e-05
-3.94989e-06
3.518e-05
-3.63523e-06
3.59909e-05
-3.32239e-06
3.67339e-05
-3.02195e-06
3.74108e-05
-2.72959e-06
3.8028e-05
-2.45566e-06
3.85873e-05
-2.19361e-06
3.90955e-05
-1.95402e-06
3.95543e-05
-1.72812e-06
3.99709e-05
-1.52728e-06
4.03466e-05
-1.34046e-06
4.06886e-05
-1.18034e-06
4.09978e-05
-1.03358e-06
4.12817e-05
-9.14618e-07
4.15407e-05
-8.07713e-07
4.17823e-05
-7.29467e-07
4.20072e-05
-6.61641e-07
4.22236e-05
-6.23607e-07
-5.95923e-07
-1.85777e-07
3.66561e-07
-5.45033e-07
7.97265e-07
-9.53894e-07
9.74911e-07
-1.37537e-06
1.06086e-06
-1.79341e-06
1.11043e-06
-2.19919e-06
1.14289e-06
-2.58852e-06
1.16493e-06
-2.95977e-06
1.17864e-06
-3.31073e-06
1.18317e-06
-3.63958e-06
1.17955e-06
-3.94519e-06
1.16937e-06
-4.22714e-06
1.15404e-06
-4.48533e-06
1.13477e-06
-4.7199e-06
1.11264e-06
-4.93113e-06
1.08852e-06
-5.11938e-06
1.06312e-06
-5.28501e-06
1.03703e-06
-5.42826e-06
1.01068e-06
-5.54932e-06
9.84506e-07
-5.64828e-06
9.58825e-07
-5.72507e-06
9.33773e-07
-5.77942e-06
9.09365e-07
-5.8108e-06
8.85476e-07
-5.81842e-06
8.61841e-07
-5.80115e-06
8.38121e-07
-5.75762e-06
8.14115e-07
-5.68614e-06
7.89518e-07
-5.58463e-06
7.63896e-07
-5.45053e-06
7.36932e-07
-5.28082e-06
7.08432e-07
-5.07182e-06
6.7828e-07
-4.81922e-06
6.46221e-07
-4.51744e-06
6.11384e-07
-4.16148e-06
5.74551e-07
-3.74553e-06
5.33335e-07
-3.26338e-06
4.84482e-07
-2.70893e-06
4.23344e-07
-2.07703e-06
3.43875e-07
-1.36385e-06
2.37901e-07
-5.67393e-07
9.60952e-08
3.10885e-07
-8.72728e-08
1.26893e-06
-3.20107e-07
2.3018e-06
-6.08784e-07
3.40379e-06
-9.53739e-07
4.57211e-06
-1.35206e-06
5.80368e-06
-1.79947e-06
7.09389e-06
-2.28952e-06
8.44235e-06
-2.81073e-06
9.84491e-06
-3.35485e-06
1.13014e-05
-3.90917e-06
1.28092e-05
-4.46359e-06
1.43641e-05
-5.00533e-06
1.59604e-05
-5.52472e-06
1.75901e-05
-6.00825e-06
1.92432e-05
-6.44754e-06
2.09111e-05
-6.8296e-06
2.25804e-05
-7.14937e-06
2.42384e-05
-7.39898e-06
2.58723e-05
-7.57716e-06
2.74708e-05
-7.67885e-06
2.90225e-05
-7.7077e-06
3.05182e-05
-7.66266e-06
3.19496e-05
-7.55179e-06
3.33103e-05
-7.3772e-06
3.45957e-05
-7.15015e-06
3.58028e-05
-6.87405e-06
3.69306e-05
-6.56214e-06
3.79788e-05
-6.21766e-06
3.8949e-05
-5.85437e-06
3.98431e-05
-5.47393e-06
4.06643e-05
-5.08975e-06
4.14156e-05
-4.70115e-06
4.21013e-05
-4.32099e-06
4.27248e-05
-3.94587e-06
4.32911e-05
-3.58823e-06
4.38034e-05
-3.24188e-06
4.4267e-05
-2.91922e-06
4.46847e-05
-2.61134e-06
4.50618e-05
-2.33118e-06
4.54009e-05
-2.06719e-06
4.5707e-05
-1.83341e-06
4.59822e-05
-1.61566e-06
4.62315e-05
-1.42965e-06
4.64565e-05
-1.25855e-06
4.66622e-05
-1.12025e-06
4.68497e-05
-9.95217e-07
4.70242e-05
-9.03974e-07
4.71868e-05
-8.24249e-07
4.7343e-05
-7.79786e-07
-7.48841e-07
-4.15604e-07
7.82164e-07
-9.49865e-07
1.33153e-06
-1.44061e-06
1.46566e-06
-1.87654e-06
1.49678e-06
-2.27888e-06
1.51277e-06
-2.65199e-06
1.51599e-06
-2.98991e-06
1.50285e-06
-3.28544e-06
1.47417e-06
-3.53414e-06
1.43187e-06
-3.73753e-06
1.38294e-06
-3.8981e-06
1.32995e-06
-4.01845e-06
1.27438e-06
-4.10105e-06
1.21738e-06
-4.14824e-06
1.15983e-06
-4.1621e-06
1.10238e-06
-4.14447e-06
1.04549e-06
-4.09689e-06
9.89448e-07
-4.02051e-06
9.3429e-07
-3.91623e-06
8.80225e-07
-3.78473e-06
8.27334e-07
-3.62639e-06
7.75426e-07
-3.44123e-06
7.24208e-07
-3.229e-06
6.73242e-07
-2.98911e-06
6.21953e-07
-2.72053e-06
5.69538e-07
-2.42207e-06
5.15661e-07
-2.09228e-06
4.59726e-07
-1.7291e-06
4.00715e-07
-1.33009e-06
3.37927e-07
-8.92314e-07
2.70651e-07
-4.12124e-07
1.9809e-07
1.15063e-07
1.19034e-07
6.94654e-07
3.17934e-08
1.33036e-06
-6.11582e-08
2.02732e-06
-1.63619e-07
2.79153e-06
-2.79734e-07
3.62787e-06
-4.12998e-07
4.54011e-06
-5.6836e-07
5.53025e-06
-7.52244e-07
6.5972e-06
-9.70848e-07
7.73982e-06
-1.2299e-06
8.95549e-06
-1.53577e-06
1.02381e-05
-1.89142e-06
1.15821e-05
-2.29772e-06
1.29824e-05
-2.75236e-06
1.44336e-05
-3.25062e-06
1.59302e-05
-3.78616e-06
1.74684e-05
-4.34891e-06
1.90425e-05
-4.92899e-06
2.06474e-05
-5.514e-06
2.22761e-05
-6.0923e-06
2.39206e-05
-6.64983e-06
2.55707e-05
-7.1748e-06
2.72155e-05
-7.65309e-06
2.88427e-05
-8.07474e-06
3.04408e-05
-8.42764e-06
3.19968e-05
-8.70541e-06
3.34993e-05
-8.90149e-06
3.4938e-05
-9.01584e-06
3.63052e-05
-9.04607e-06
3.75945e-05
-8.99702e-06
3.88021e-05
-8.87027e-06
3.99254e-05
-8.67508e-06
4.09641e-05
-8.41586e-06
4.1919e-05
-8.10504e-06
4.27928e-05
-7.74793e-06
4.35891e-05
-7.3584e-06
4.43122e-05
-6.94081e-06
4.4967e-05
-6.50909e-06
4.55583e-05
-6.06532e-06
4.60915e-05
-5.62285e-06
4.65712e-05
-5.18089e-06
4.70024e-05
-4.75222e-06
4.73895e-05
-4.33297e-06
4.77369e-05
-3.93563e-06
4.80483e-05
-3.55324e-06
4.83275e-05
-3.19847e-06
4.85776e-05
-2.86143e-06
4.8802e-05
-2.55559e-06
4.9003e-05
-2.26821e-06
4.91838e-05
-2.01417e-06
4.93461e-05
-1.77791e-06
4.94927e-05
-1.57626e-06
4.96249e-05
-1.39082e-06
4.97456e-05
-1.24097e-06
4.98558e-05
-1.10535e-06
4.99582e-05
-1.00641e-06
5.00537e-05
-9.19728e-07
5.01454e-05
-8.71527e-07
-8.37183e-07
-2.65882e-07
1.04805e-06
-8.66412e-07
1.93206e-06
-1.49547e-06
2.09472e-06
-2.02538e-06
2.02669e-06
-2.42757e-06
1.91496e-06
-2.7038e-06
1.79222e-06
-2.87088e-06
1.66993e-06
-2.94797e-06
1.55127e-06
-2.95232e-06
1.43622e-06
-2.8946e-06
1.32522e-06
-2.78284e-06
1.21819e-06
-2.62343e-06
1.11497e-06
-2.42178e-06
1.01572e-06
-2.18244e-06
9.20491e-07
-1.9092e-06
8.29143e-07
-1.60511e-06
7.41401e-07
-1.27267e-06
6.57007e-07
-9.1353e-07
5.75149e-07
-5.29123e-07
4.95818e-07
-1.20429e-07
4.1864e-07
3.12168e-07
3.42829e-07
7.68637e-07
2.67739e-07
1.24933e-06
1.9255e-07
1.75512e-06
1.16167e-07
2.28779e-06
3.68643e-08
2.84796e-06
-4.4513e-08
3.43685e-06
-1.29162e-07
4.05716e-06
-2.19598e-07
4.71146e-06
-3.16367e-07
5.40264e-06
-4.20527e-07
6.13395e-06
-5.33228e-07
6.90886e-06
-6.55876e-07
7.7301e-06
-7.8944e-07
8.60411e-06
-9.35173e-07
9.53587e-06
-1.09538e-06
1.05293e-05
-1.27316e-06
1.15882e-05
-1.47191e-06
1.27155e-05
-1.69568e-06
1.39123e-05
-1.94899e-06
1.51782e-05
-2.23681e-06
1.65115e-05
-2.56311e-06
1.79072e-05
-2.93149e-06
1.93594e-05
-3.34362e-06
2.08609e-05
-3.79929e-06
2.24043e-05
-4.29567e-06
2.39812e-05
-4.82754e-06
2.55825e-05
-5.38746e-06
2.71988e-05
-5.96526e-06
2.88197e-05
-6.54983e-06
3.04343e-05
-7.12864e-06
3.20308e-05
-7.68882e-06
3.35973e-05
-8.21635e-06
3.51205e-05
-8.69797e-06
3.65882e-05
-9.12079e-06
3.79885e-05
-9.47506e-06
3.93116e-05
-9.75072e-06
4.0548e-05
-9.94182e-06
4.16913e-05
-1.00448e-05
4.27373e-05
-1.00619e-05
4.36858e-05
-9.99454e-06
4.45378e-05
-9.84902e-06
4.52969e-05
-9.62938e-06
4.59678e-05
-9.34596e-06
4.6557e-05
-9.00504e-06
4.70713e-05
-8.61936e-06
4.75187e-05
-8.1953e-06
4.79065e-05
-7.74624e-06
4.82425e-05
-7.27684e-06
4.85335e-05
-6.80001e-06
4.87858e-05
-6.31766e-06
4.9005e-05
-5.84203e-06
4.91961e-05
-5.37199e-06
4.93632e-05
-4.91935e-06
4.95101e-05
-4.47984e-06
4.96397e-05
-4.06523e-06
4.97546e-05
-3.66815e-06
4.9857e-05
-3.30088e-06
4.99486e-05
-2.95304e-06
5.00311e-05
-2.63807e-06
5.01055e-05
-2.34264e-06
5.01732e-05
-2.08184e-06
5.02347e-05
-1.8394e-06
5.02911e-05
-1.63271e-06
5.03428e-05
-1.44248e-06
5.03908e-05
-1.28895e-06
5.04351e-05
-1.14967e-06
5.04769e-05
-1.04825e-06
5.05161e-05
-9.58938e-07
5.05538e-05
-9.09199e-07
-8.71786e-07
-1.51454e-06
2.56259e-06
-1.98089e-06
2.3984e-06
-2.15624e-06
2.27006e-06
-2.17908e-06
2.04953e-06
-2.07035e-06
1.80623e-06
-1.85372e-06
1.57558e-06
-1.54788e-06
1.36409e-06
-1.16663e-06
1.17002e-06
-7.2273e-07
9.9232e-07
-2.28235e-07
8.30726e-07
3.07616e-07
6.82338e-07
8.77281e-07
5.45309e-07
1.47452e-06
4.18491e-07
2.09446e-06
3.00542e-07
2.73349e-06
1.90116e-07
3.38874e-06
8.61538e-08
4.05794e-06
-1.21998e-08
4.74168e-06
-1.08586e-07
5.43782e-06
-2.0032e-07
6.14568e-06
-2.89223e-07
6.86611e-06
-3.776e-07
7.59986e-06
-4.66011e-07
8.34801e-06
-5.55597e-07
9.11183e-06
-6.47658e-07
9.89217e-06
-7.43476e-07
1.06917e-05
-8.44076e-07
1.15134e-05
-9.50792e-07
1.2359e-05
-1.06526e-06
1.32314e-05
-1.18876e-06
1.41334e-05
-1.32256e-06
1.50681e-05
-1.4679e-06
1.60384e-05
-1.62619e-06
1.70479e-05
-1.79888e-06
1.81003e-05
-1.98756e-06
1.91989e-05
-2.19404e-06
2.03466e-05
-2.42082e-06
2.15453e-05
-2.67066e-06
2.27964e-05
-2.94673e-06
2.40995e-05
-3.25212e-06
2.54526e-05
-3.58994e-06
2.68517e-05
-3.9622e-06
2.82906e-05
-4.37035e-06
2.97612e-05
-4.81426e-06
3.12541e-05
-5.29214e-06
3.27582e-05
-5.79979e-06
3.42624e-05
-6.33175e-06
3.57539e-05
-6.87894e-06
3.72186e-05
-7.42995e-06
3.86426e-05
-7.97383e-06
4.00122e-05
-8.4983e-06
4.13138e-05
-8.9904e-06
4.25349e-05
-9.43741e-06
4.36643e-05
-9.82744e-06
4.46936e-05
-1.01501e-05
4.56157e-05
-1.03972e-05
4.64273e-05
-1.05623e-05
4.7128e-05
-1.06425e-05
4.77193e-05
-1.06361e-05
4.82056e-05
-1.05481e-05
4.85958e-05
-1.03848e-05
4.8899e-05
-1.01522e-05
4.9126e-05
-9.85638e-06
4.92875e-05
-9.50742e-06
4.93949e-05
-9.11244e-06
4.94585e-05
-8.68297e-06
4.94884e-05
-8.22522e-06
4.94929e-05
-7.75071e-06
4.94795e-05
-7.26342e-06
4.94537e-05
-6.77428e-06
4.94206e-05
-6.28454e-06
4.93834e-05
-5.80487e-06
4.93451e-05
-5.33368e-06
4.93074e-05
-4.88165e-06
4.92717e-05
-4.44414e-06
4.92388e-05
-4.0323e-06
4.92091e-05
-3.6384e-06
4.91829e-05
-3.27467e-06
4.91601e-05
-2.93025e-06
4.91409e-05
-2.61893e-06
4.91248e-05
-2.32657e-06
4.91121e-05
-2.06908e-06
4.91017e-05
-1.82903e-06
4.90941e-05
-1.62506e-06
4.9088e-05
-1.43637e-06
4.90839e-05
-1.28486e-06
4.90803e-05
-1.14615e-06
4.90781e-05
-1.04598e-06
4.90754e-05
-9.5627e-07
4.90735e-05
-9.07304e-07
-8.65689e-07
-9.08744e-07
3.47134e-06
-7.63147e-07
2.25281e-06
-2.73729e-07
1.78064e-06
4.43024e-07
1.33278e-06
1.32061e-06
9.28642e-07
2.29249e-06
6.0371e-07
3.31245e-06
3.44136e-07
4.35358e-06
1.28892e-07
5.39936e-06
-5.34654e-08
6.43818e-06
-2.08089e-07
7.47022e-06
-3.49708e-07
8.49295e-06
-4.77419e-07
9.50405e-06
-5.92611e-07
1.05025e-05
-6.97931e-07
1.14883e-05
-7.95682e-07
1.24619e-05
-8.87455e-07
1.34245e-05
-9.74727e-07
1.43751e-05
-1.05918e-06
1.5316e-05
-1.14123e-06
1.62491e-05
-1.22233e-06
1.71757e-05
-1.30427e-06
1.80981e-05
-1.38835e-06
1.90184e-05
-1.47587e-06
1.99389e-05
-1.56819e-06
2.08622e-05
-1.66675e-06
2.17911e-05
-1.77297e-06
2.27284e-05
-1.88814e-06
2.36769e-05
-2.01371e-06
2.46391e-05
-2.15104e-06
2.56179e-05
-2.30127e-06
2.66155e-05
-2.46558e-06
2.76346e-05
-2.64524e-06
2.86773e-05
-2.84155e-06
2.97456e-05
-3.05585e-06
3.08411e-05
-3.28959e-06
3.19647e-05
-3.5444e-06
3.31161e-05
-3.82212e-06
3.42941e-05
-4.12465e-06
3.54962e-05
-4.45424e-06
3.67182e-05
-4.81198e-06
3.79534e-05
-5.19741e-06
3.91936e-05
-5.61052e-06
4.04288e-05
-6.04943e-06
4.16475e-05
-6.51081e-06
4.2837e-05
-6.98933e-06
4.39833e-05
-7.47806e-06
4.50723e-05
-7.96794e-06
4.60911e-05
-8.44876e-06
4.70268e-05
-8.90954e-06
4.7868e-05
-9.33946e-06
4.8605e-05
-9.72742e-06
4.92312e-05
-1.00636e-05
4.97426e-05
-1.03389e-05
5.01389e-05
-1.05463e-05
5.04224e-05
-1.06807e-05
5.05993e-05
-1.07392e-05
5.06783e-05
-1.07215e-05
5.06714e-05
-1.06292e-05
5.05911e-05
-1.04678e-05
5.04515e-05
-1.02452e-05
5.02663e-05
-9.96701e-06
5.00491e-05
-9.63914e-06
4.98112e-05
-9.26956e-06
4.95634e-05
-8.86465e-06
4.93136e-05
-8.43315e-06
4.90688e-05
-7.98047e-06
4.88333e-05
-7.51513e-06
4.86103e-05
-7.04043e-06
4.84007e-05
-6.56475e-06
4.82058e-05
-6.08959e-06
4.80248e-05
-5.62392e-06
4.7858e-05
-5.16688e-06
4.77042e-05
-4.72785e-06
4.7563e-05
-4.30296e-06
4.74332e-05
-3.9025e-06
4.73143e-05
-3.51944e-06
4.72053e-05
-3.16566e-06
4.71056e-05
-2.83055e-06
4.70147e-05
-2.52807e-06
4.69317e-05
-2.24355e-06
4.68564e-05
-1.99382e-06
4.67874e-05
-1.76e-06
4.6725e-05
-1.56266e-06
4.66671e-05
-1.3784e-06
4.66144e-05
-1.2322e-06
4.6564e-05
-1.09578e-06
4.65174e-05
-9.99324e-07
4.64705e-05
-9.09372e-07
4.64253e-05
-8.62097e-07
-8.18462e-07
3.67371e-06
-2.02377e-07
6.41132e-06
-4.84804e-07
8.83479e-06
-6.42826e-07
1.09713e-05
-8.03714e-07
1.28637e-05
-9.6378e-07
1.4576e-05
-1.10856e-06
1.61526e-05
-1.23252e-06
1.76101e-05
-1.32855e-06
1.89769e-05
-1.42029e-06
2.02722e-05
-1.50342e-06
2.15011e-05
-1.57861e-06
2.26716e-05
-1.64786e-06
2.37912e-05
-1.71222e-06
2.48658e-05
-1.77258e-06
2.59e-05
-1.82984e-06
2.68976e-05
-1.88505e-06
2.7862e-05
-1.93914e-06
2.87961e-05
-1.99328e-06
2.97034e-05
-2.04854e-06
3.05871e-05
-2.10608e-06
3.14501e-05
-2.16722e-06
3.22951e-05
-2.2334e-06
3.31252e-05
-2.30593e-06
3.39432e-05
-2.38615e-06
3.47518e-05
-2.47535e-06
3.55536e-05
-2.57484e-06
3.63513e-05
-2.68579e-06
3.71471e-05
-2.80953e-06
3.79435e-05
-2.94746e-06
3.8742e-05
-3.09978e-06
3.95441e-05
-3.2677e-06
4.03511e-05
-3.45217e-06
4.11636e-05
-3.65407e-06
4.1982e-05
-3.87422e-06
4.28059e-05
-4.11349e-06
4.36342e-05
-4.37273e-06
4.44649e-05
-4.6528e-06
4.52946e-05
-4.95442e-06
4.61184e-05
-5.27801e-06
4.69297e-05
-5.62333e-06
4.77216e-05
-5.98924e-06
4.8485e-05
-6.37392e-06
4.921e-05
-6.77445e-06
4.98859e-05
-7.18666e-06
5.05015e-05
-7.60494e-06
5.10458e-05
-8.02244e-06
5.15091e-05
-8.4312e-06
5.18829e-05
-8.82257e-06
5.21608e-05
-9.18745e-06
5.23385e-05
-9.51717e-06
5.2415e-05
-9.80392e-06
5.23927e-05
-1.00412e-05
5.22772e-05
-1.02234e-05
5.20774e-05
-1.03465e-05
5.18043e-05
-1.04077e-05
5.14711e-05
-1.04059e-05
5.10914e-05
-1.03419e-05
5.06809e-05
-1.02186e-05
5.02526e-05
-1.00396e-05
4.98179e-05
-9.81043e-06
4.93862e-05
-9.53535e-06
4.89657e-05
-9.21864e-06
4.85606e-05
-8.86447e-06
4.8174e-05
-8.47808e-06
4.78064e-05
-8.06557e-06
4.74585e-05
-7.63255e-06
4.71284e-05
-7.18502e-06
4.68151e-05
-6.72714e-06
4.65157e-05
-6.26528e-06
4.62293e-05
-5.80323e-06
4.59538e-05
-5.34838e-06
4.56895e-05
-4.90265e-06
4.5435e-05
-4.4733e-06
4.51914e-05
-4.05937e-06
4.49575e-05
-3.66862e-06
4.47351e-05
-3.29701e-06
4.4523e-05
-2.95356e-06
4.43229e-05
-2.63045e-06
4.41336e-05
-2.33877e-06
4.39562e-05
-2.0662e-06
4.37896e-05
-1.82715e-06
4.3634e-05
-1.60439e-06
4.34883e-05
-1.41699e-06
4.33518e-05
-1.24192e-06
4.32237e-05
-1.10411e-06
4.31019e-05
-9.73917e-07
4.2986e-05
-8.83517e-07
4.28724e-05
-7.95751e-07
4.27617e-05
-7.51418e-07
-7.0804e-07
3.86476e-05
-3.03154e-09
3.86252e-05
-4.62402e-07
3.87761e-05
-7.93699e-07
3.90151e-05
-1.04276e-06
3.93042e-05
-1.2528e-06
3.96372e-05
-1.44162e-06
4.00156e-05
-1.61091e-06
4.04415e-05
-1.75441e-06
4.08943e-05
-1.87314e-06
4.13631e-05
-1.97222e-06
4.18418e-05
-2.05728e-06
4.23248e-05
-2.1309e-06
4.2808e-05
-2.19535e-06
4.32879e-05
-2.25257e-06
4.37623e-05
-2.30423e-06
4.42293e-05
-2.352e-06
4.46876e-05
-2.39743e-06
4.51365e-05
-2.44218e-06
4.55758e-05
-2.48782e-06
4.60056e-05
-2.53593e-06
4.64264e-05
-2.58802e-06
4.68387e-05
-2.64571e-06
4.72433e-05
-2.71048e-06
4.76409e-05
-2.78379e-06
4.80325e-05
-2.86694e-06
4.84189e-05
-2.96121e-06
4.88008e-05
-3.06772e-06
4.91788e-05
-3.18754e-06
4.95529e-05
-3.32155e-06
4.99235e-05
-3.47041e-06
5.02906e-05
-3.63477e-06
5.06537e-05
-3.81524e-06
5.10119e-05
-4.01235e-06
5.13642e-05
-4.22652e-06
5.17089e-05
-4.45811e-06
5.20435e-05
-4.70736e-06
5.23651e-05
-4.9744e-06
5.26698e-05
-5.25907e-06
5.29526e-05
-5.5609e-06
5.32082e-05
-5.87887e-06
5.34304e-05
-6.21141e-06
5.36126e-05
-6.55619e-06
5.37483e-05
-6.91011e-06
5.38307e-05
-7.26911e-06
5.38541e-05
-7.62827e-06
5.38135e-05
-7.98185e-06
5.37059e-05
-8.32359e-06
5.35301e-05
-8.64679e-06
5.32873e-05
-8.94465e-06
5.29803e-05
-9.21018e-06
5.26153e-05
-9.43889e-06
5.22005e-05
-9.6265e-06
5.17459e-05
-9.76877e-06
5.12622e-05
-9.86276e-06
5.07606e-05
-9.90605e-06
5.02512e-05
-9.89656e-06
4.97422e-05
-9.83287e-06
4.92391e-05
-9.71557e-06
4.87457e-05
-9.5462e-06
4.82632e-05
-9.32796e-06
4.77913e-05
-9.06338e-06
4.7328e-05
-8.75537e-06
4.687e-05
-8.40649e-06
4.64141e-05
-8.02217e-06
4.59573e-05
-7.6087e-06
4.54982e-05
-7.17349e-06
4.50354e-05
-6.72227e-06
4.45695e-05
-6.26118e-06
4.41003e-05
-5.79614e-06
4.36308e-05
-5.33373e-06
4.31624e-05
-4.87999e-06
4.26996e-05
-4.43976e-06
4.22439e-05
-4.01769e-06
4.18007e-05
-3.61612e-06
4.13709e-05
-3.23885e-06
4.09597e-05
-2.88577e-06
4.05667e-05
-2.56058e-06
4.01964e-05
-2.26017e-06
3.98464e-05
-1.98879e-06
3.95205e-05
-1.74025e-06
3.92147e-05
-1.52137e-06
3.89324e-05
-1.32206e-06
3.86683e-05
-1.15292e-06
3.8425e-05
-9.98643e-07
3.81965e-05
-8.75607e-07
3.79844e-05
-7.61763e-07
3.77824e-05
-6.81525e-07
3.7591e-05
-6.04326e-07
3.74045e-05
-5.64945e-07
-5.23813e-07
5.30032e-05
7.35025e-08
5.29156e-05
-3.74771e-07
5.28913e-05
-7.69397e-07
5.29196e-05
-1.07111e-06
5.29702e-05
-1.30339e-06
5.3024e-05
-1.49542e-06
5.30772e-05
-1.66411e-06
5.31368e-05
-1.81395e-06
5.32077e-05
-1.94409e-06
5.32901e-05
-2.05461e-06
5.33803e-05
-2.14749e-06
5.34751e-05
-2.22565e-06
5.35718e-05
-2.29204e-06
5.36685e-05
-2.34932e-06
5.3764e-05
-2.39967e-06
5.3857e-05
-2.44506e-06
5.39469e-05
-2.48731e-06
5.4033e-05
-2.52823e-06
5.41147e-05
-2.56955e-06
5.41918e-05
-2.61307e-06
5.42642e-05
-2.66041e-06
5.43318e-05
-2.71326e-06
5.43944e-05
-2.77314e-06
5.44522e-05
-2.84157e-06
5.45051e-05
-2.91985e-06
5.45531e-05
-3.0092e-06
5.4596e-05
-3.11065e-06
5.46337e-05
-3.22515e-06
5.46655e-05
-3.35343e-06
5.46913e-05
-3.49618e-06
5.47104e-05
-3.65388e-06
5.47221e-05
-3.82693e-06
5.47254e-05
-4.01566e-06
5.47192e-05
-4.22027e-06
5.47019e-05
-4.44088e-06
5.4672e-05
-4.67741e-06
5.46273e-05
-4.92971e-06
5.45655e-05
-5.19725e-06
5.44839e-05
-5.47934e-06
5.43797e-05
-5.77463e-06
5.42496e-05
-6.08134e-06
5.40909e-05
-6.39749e-06
5.39011e-05
-6.72029e-06
5.3678e-05
-7.04603e-06
5.34204e-05
-7.37066e-06
5.31279e-05
-7.68938e-06
5.28013e-05
-7.99699e-06
5.24424e-05
-8.2879e-06
5.20541e-05
-8.55636e-06
5.16407e-05
-8.7967e-06
5.12057e-05
-9.00393e-06
5.07526e-05
-9.17341e-06
5.02847e-05
-9.3009e-06
4.98045e-05
-9.38252e-06
4.93136e-05
-9.41512e-06
4.8811e-05
-9.39399e-06
4.82939e-05
-9.31581e-06
4.77583e-05
-9.17997e-06
4.72002e-05
-8.98801e-06
4.66147e-05
-8.74248e-06
4.59972e-05
-8.44585e-06
4.53451e-05
-8.10337e-06
4.46583e-05
-7.71964e-06
4.39373e-05
-7.30118e-06
4.31848e-05
-6.85624e-06
4.24052e-05
-6.39382e-06
4.16038e-05
-5.92093e-06
4.0788e-05
-5.44537e-06
3.9966e-05
-4.97413e-06
3.91469e-05
-4.51459e-06
3.83384e-05
-4.07146e-06
3.75485e-05
-3.64989e-06
3.67835e-05
-3.25267e-06
3.60505e-05
-2.88312e-06
3.53535e-05
-2.54184e-06
3.46979e-05
-2.23019e-06
3.40849e-05
-1.9476e-06
3.35181e-05
-1.69341e-06
3.29947e-05
-1.46536e-06
3.25171e-05
-1.26268e-06
3.20798e-05
-1.08409e-06
3.16852e-05
-9.27443e-07
3.13249e-05
-7.92588e-07
3.10017e-05
-6.75448e-07
3.07047e-05
-5.7864e-07
3.04377e-05
-4.94735e-07
3.01878e-05
-4.31583e-07
2.99595e-05
-3.76011e-07
2.97387e-05
-3.44187e-07
-3.12573e-07
5.43334e-05
-2.49251e-07
5.45134e-05
-5.54838e-07
5.46169e-05
-8.72832e-07
5.47039e-05
-1.1581e-06