/*--------------------------------*- C++ -*----------------------------------*\
| =========                 |                                                 |
| \\      /  F ield         | OpenFOAM: The Open Source CFD Toolbox           |
|  \\    /   O peration     | Version:  2306                                  |
|   \\  /    A nd           | Website:  www.openfoam.com                      |
|    \\/     M anipulation  |                                                 |
\*---------------------------------------------------------------------------*/
FoamFile
{
    version     2.0;
    format      ascii;
    arch        "LSB;label=32;scalar=64";
    class       volVectorField;
    location    "3";
    object      U;
}
// * * * * * * * * * * * * * * * * * * * * * * * * * * * * * * * * * * * * * //

dimensions      [0 1 -1 0 0 0 0];

internalField   nonuniform List<vector> 
1900
(
(0.984293 0.00727883 0)
(0.961748 0.0216962 0)
(0.952375 0.0181517 0)
(0.918716 0.0253106 0)
(0.903517 0.0153981 0)
(0.863149 0.0257497 0)
(0.852478 0.0115257 0)
(0.812187 0.0267087 0)
(0.810087 0.00442762 0)
(0.771004 0.0258828 0)
(1.00257 0.0115549 0)
(1.00445 0.0258519 0)
(1.01946 0.0289399 0)
(1.02199 0.0304216 0)
(1.03494 0.0279508 0)
(1.03404 0.0283445 0)
(1.0442 0.0256747 0)
(1.04297 0.0249353 0)
(1.05147 0.020435 0)
(1.05262 0.0158633 0)
(1.00048 0.00387855 0)
(1.00419 0.0111388 0)
(1.01256 0.0139641 0)
(1.02115 0.0157387 0)
(1.03157 0.0146361 0)
(1.04059 0.0143164 0)
(1.05006 0.0122246 0)
(1.05849 0.0107232 0)
(1.067 0.0070153 0)
(1.07487 0.00275532 0)
(1.00007 0.00207008 0)
(1.00313 0.00582183 0)
(1.00889 0.00801683 0)
(1.0165 0.0089759 0)
(1.02529 0.00846938 0)
(1.03434 0.00733447 0)
(1.04328 0.00550966 0)
(1.05185 0.00328969 0)
(1.06004 0.000390932 0)
(1.06771 -0.00322034 0)
(1.00003 0.000417166 0)
(1.00261 0.00114887 0)
(1.00738 0.00139345 0)
(1.01402 0.00108949 0)
(1.02192 0.000162221 0)
(1.03036 -0.0012394 0)
(1.03879 -0.00308 0)
(1.04692 -0.00534177 0)
(1.05458 -0.00807213 0)
(1.06171 -0.0113396 0)
(1.00003 -0.00106767 0)
(1.00255 -0.00304917 0)
(1.00719 -0.00478838 0)
(1.01365 -0.00624807 0)
(1.02131 -0.0075745 0)
(1.02947 -0.00897111 0)
(1.03755 -0.010625 0)
(1.04528 -0.0126501 0)
(1.05252 -0.0150879 0)
(1.05927 -0.0179095 0)
(1.00003 -0.00271674 0)
(1.00303 -0.00745124 0)
(1.00835 -0.0110923 0)
(1.01544 -0.0135466 0)
(1.02344 -0.0151933 0)
(1.03159 -0.0165831 0)
(1.03944 -0.0181229 0)
(1.04681 -0.0199921 0)
(1.0537 -0.0221852 0)
(1.06014 -0.0246134 0)
(1.00004 -0.00477419 0)
(1.00441 -0.0122485 0)
(1.01136 -0.0169437 0)
(1.01978 -0.0193884 0)
(1.02836 -0.0207319 0)
(1.03634 -0.0219245 0)
(1.04351 -0.0234155 0)
(1.04995 -0.0252334 0)
(1.05578 -0.0272379 0)
(1.06103 -0.0292972 0)
(1.00006 -0.0121218 0)
(1.00721 -0.0259614 0)
(1.01557 -0.0314461 0)
(1.02285 -0.0326037 0)
(1.02789 -0.0326982 0)
(1.03066 -0.0330871 0)
(1.03163 -0.0338828 0)
(1.03128 -0.0348239 0)
(1.0298 -0.0356948 0)
(1.02722 -0.036438 0)
(0.980776 -0.00916442 0)
(0.964581 -0.0188244 0)
(0.945444 -0.0220515 0)
(0.920761 -0.022194 0)
(0.891948 -0.0217518 0)
(0.861604 -0.0215956 0)
(0.83132 -0.0216341 0)
(0.801576 -0.0216324 0)
(0.772296 -0.0214668 0)
(0.743235 -0.0211534 0)
(0.000187951 -8.2374e-05 0)
(0.000276257 6.08756e-06 0)
(-3.68967e-05 5.20004e-05 0)
(-0.000550099 7.33321e-05 0)
(-0.00120076 8.07351e-05 0)
(-0.00194416 8.89636e-05 0)
(-0.0027713 0.000104056 0)
(-0.00368727 0.000124036 0)
(-0.00469372 0.000145383 0)
(-0.00578604 0.000165846 0)
(-0.00695671 0.000184762 0)
(-0.00819796 0.00020224 0)
(-0.00950282 0.000218451 0)
(-0.010865 0.000233407 0)
(-0.0122789 0.000247022 0)
(-0.0137394 0.000259236 0)
(-0.0152422 0.00027007 0)
(-0.0167842 0.000279645 0)
(-0.018363 0.000288105 0)
(-0.0199776 0.000295495 0)
(-0.0216278 0.000301716 0)
(-0.0233143 0.000306381 0)
(-0.0250382 0.000308651 0)
(-0.0268005 0.000307068 0)
(-0.0286021 0.000299378 0)
(-0.030443 0.000282332 0)
(-0.0323227 0.000251571 0)
(-0.0342406 0.000201845 0)
(-0.036198 0.000127967 0)
(-0.0382031 2.6833e-05 0)
(-0.0402778 -9.95384e-05 0)
(-0.0424682 -0.000239942 0)
(-0.0448565 -0.000369311 0)
(-0.0475724 -0.000445072 0)
(-0.0508036 -0.000406066 0)
(-0.0547997 -0.000174671 0)
(-0.0598647 0.000332946 0)
(-0.0663274 0.00118526 0)
(-0.0744916 0.00240229 0)
(-0.0845646 0.00392405 0)
(-0.0965827 0.00560501 0)
(-0.110354 0.00724198 0)
(-0.125445 0.00862293 0)
(-0.141228 0.00957744 0)
(-0.156977 0.0100047 0)
(-0.171959 0.00988201 0)
(-0.185501 0.00928085 0)
(-0.196978 0.00836269 0)
(-0.205861 0.00723007 0)
(-0.211849 0.00595833 0)
(-0.214716 0.00451653 0)
(-0.214383 0.0029239 0)
(-0.210879 0.00123009 0)
(-0.204266 -0.000470006 0)
(-0.194658 -0.00211158 0)
(-0.182227 -0.00366279 0)
(-0.167263 -0.00505339 0)
(-0.15006 -0.00628258 0)
(-0.130923 -0.0073197 0)
(-0.110198 -0.00814923 0)
(-0.088239 -0.0087654 0)
(-0.0654289 -0.00912529 0)
(-0.0421625 -0.00929132 0)
(-0.018739 -0.00927447 0)
(0.00447735 -0.00909377 0)
(0.0272649 -0.00874999 0)
(0.0492837 -0.00826244 0)
(0.0704197 -0.00766712 0)
(0.0903408 -0.00700328 0)
(0.109044 -0.00629874 0)
(0.126246 -0.00556275 0)
(0.142062 -0.00481903 0)
(0.156243 -0.00407383 0)
(0.169012 -0.00335352 0)
(0.180135 -0.00265759 0)
(0.189938 -0.00201287 0)
(0.198173 -0.00141007 0)
(0.205271 -0.00087744 0)
(0.210937 -0.000396077 0)
(0.215715 3.00718e-06 0)
(0.219223 0.000349462 0)
(0.222144 0.000605849 0)
(0.223958 0.000819303 0)
(0.225517 0.000931887 0)
(0.226121 0.00102773 0)
(0.226807 0.00100815 0)
(0.226673 0.00100229 0)
(0.226942 0.000871855 0)
(0.226568 0.000855728 0)
(0.226717 0.000572919 0)
(3.40837e-05 -0.000453793 0)
(-0.000585178 0.000217259 0)
(-0.00208887 0.000770145 0)
(-0.00399059 0.00113938 0)
(-0.00623543 0.00137037 0)
(-0.00874427 0.00154509 0)
(-0.0114872 0.00171354 0)
(-0.0144536 0.00188347 0)
(-0.0176281 0.00204742 0)
(-0.0209899 0.0021989 0)
(-0.0245163 0.00233598 0)
(-0.0281865 0.00245928 0)
(-0.0319819 0.00257007 0)
(-0.0358867 0.00266962 0)
(-0.0398879 0.00275924 0)
(-0.0439751 0.00284047 0)
(-0.0481412 0.00291514 0)
(-0.0523826 0.00298532 0)
(-0.0566993 0.00305311 0)
(-0.061095 0.00312051 0)
(-0.0655768 0.0031896 0)
(-0.0701559 0.00326222 0)
(-0.0748475 0.00333984 0)
(-0.079671 0.00342372 0)
(-0.0846511 0.00351529 0)
(-0.0898192 0.00361669 0)
(-0.0952141 0.00373172 0)
(-0.100884 0.00386776 0)
(-0.106888 0.00403868 0)
(-0.113297 0.00426853 0)
(-0.120198 0.00459386 0)
(-0.127687 0.00506468 0)
(-0.135871 0.00574444 0)
(-0.144847 0.00670382 0)
(-0.154693 0.00800867 0)
(-0.165437 0.00970263 0)
(-0.177043 0.0117814 0)
(-0.189382 0.0141669 0)
(-0.202232 0.0166919 0)
(-0.215269 0.0191141 0)
(-0.228089 0.0211618 0)
(-0.240231 0.0225688 0)
(-0.251205 0.0231199 0)
(-0.260529 0.0226914 0)
(-0.267758 0.0212542 0)
(-0.272483 0.0188664 0)
(-0.274339 0.015679 0)
(-0.273101 0.0118767 0)
(-0.268655 0.00752313 0)
(-0.26113 0.00282706 0)
(-0.25034 -0.00207272 0)
(-0.236516 -0.00701111 0)
(-0.219591 -0.0118638 0)
(-0.199769 -0.0165186 0)
(-0.177235 -0.020878 0)
(-0.152185 -0.0248966 0)
(-0.124974 -0.0283139 0)
(-0.0959032 -0.0312867 0)
(-0.0652919 -0.0337516 0)
(-0.0335009 -0.0356948 0)
(-0.000866411 -0.0370845 0)
(0.0323807 -0.0379172 0)
(0.065677 -0.038244 0)
(0.0988589 -0.0380685 0)
(0.131431 -0.0374571 0)
(0.163457 -0.0364306 0)
(0.194299 -0.0350465 0)
(0.224221 -0.0333514 0)
(0.25248 -0.0314131 0)
(0.279594 -0.0292969 0)
(0.304744 -0.0270505 0)
(0.328674 -0.0247365 0)
(0.350439 -0.0223829 0)
(0.371039 -0.0200539 0)
(0.38936 -0.0177564 0)
(0.406696 -0.0155574 0)
(0.421684 -0.0134395 0)
(0.435984 -0.0114765 0)
(0.447874 -0.00962265 0)
(0.45948 -0.00796648 0)
(0.468581 -0.00642772 0)
(0.477921 -0.00512004 0)
(0.484581 -0.00392145 0)
(0.492148 -0.00298009 0)
(0.496716 -0.00212644 0)
(0.503065 -0.00155217 0)
(0.505859 -0.00102622 0)
(0.51161 -0.000806914 0)
(0.51291 -0.000563739 0)
(0.518681 -0.000655251 0)
(-0.000143633 0.000514666 0)
(-0.00186722 0.0023682 0)
(-0.00524935 0.00353661 0)
(-0.00909564 0.00427936 0)
(-0.0133603 0.00481742 0)
(-0.0179331 0.00528925 0)
(-0.0227799 0.00574456 0)
(-0.027883 0.00618461 0)
(-0.0332038 0.00659226 0)
(-0.0387 0.00695684 0)
(-0.0443331 0.00727686 0)
(-0.0500694 0.0075553 0)
(-0.0558807 0.00779715 0)
(-0.0617441 0.00800785 0)
(-0.0676423 0.00819324 0)
(-0.0735631 0.00835952 0)
(-0.0794988 0.00851329 0)
(-0.0854465 0.00866176 0)
(-0.0914073 0.00881287 0)
(-0.0973853 0.00897471 0)
(-0.103387 0.00915462 0)
(-0.109422 0.0093596 0)
(-0.1155 0.00959648 0)
(-0.121632 0.00987232 0)
(-0.127829 0.0101951 0)
(-0.1341 0.0105743 0)
(-0.140455 0.0110212 0)
(-0.146898 0.0115495 0)
(-0.153429 0.0121761 0)
(-0.160045 0.0129204 0)
(-0.166735 0.0138055 0)
(-0.173475 0.0148583 0)
(-0.180227 0.0161051 0)
(-0.186926 0.0175641 0)
(-0.193478 0.019234 0)
(-0.199748 0.0210834 0)
(-0.205563 0.0230359 0)
(-0.210712 0.0249594 0)
(-0.21494 0.0266653 0)
(-0.217961 0.0279207 0)
(-0.219494 0.0284718 0)
(-0.219283 0.0280829 0)
(-0.217102 0.0265695 0)
(-0.212775 0.023857 0)
(-0.206192 0.0199772 0)
(-0.197229 0.015022 0)
(-0.18582 0.009124 0)
(-0.172161 0.00243707 0)
(-0.156091 -0.00485921 0)
(-0.137865 -0.0126102 0)
(-0.117158 -0.0205108 0)
(-0.0943374 -0.0283095 0)
(-0.0694158 -0.0358359 0)
(-0.0426285 -0.0429534 0)
(-0.0141389 -0.0495688 0)
(0.0159882 -0.0554793 0)
(0.047674 -0.0606512 0)
(0.0802846 -0.0649866 0)
(0.113679 -0.0684876 0)
(0.147619 -0.0711293 0)
(0.181718 -0.0728993 0)
(0.215866 -0.0737786 0)
(0.249572 -0.0738904 0)
(0.282925 -0.0732138 0)
(0.315202 -0.0718591 0)
(0.346817 -0.0698463 0)
(0.376843 -0.0673073 0)
(0.406025 -0.0642874 0)
(0.433211 -0.0609124 0)
(0.459517 -0.0572339 0)
(0.483532 -0.0533731 0)
(0.506778 -0.0493801 0)
(0.527513 -0.0453572 0)
(0.547719 -0.0413422 0)
(0.565228 -0.0374167 0)
(0.582575 -0.0336041 0)
(0.597031 -0.0299683 0)
(0.611814 -0.0265172 0)
(0.623461 -0.0233024 0)
(0.636056 -0.0203152 0)
(0.645164 -0.0176031 0)
(0.655997 -0.0151383 0)
(0.662838 -0.0129738 0)
(0.672372 -0.0110585 0)
(0.677196 -0.00945963 0)
(0.685932 -0.0080978 0)
(0.688956 -0.0070623 0)
(0.697432 -0.00623735 0)
(0.698832 -0.005753 0)
(0.707611 -0.00542412 0)
(-0.000870734 0.00119705 0)
(-0.00457906 0.00499856 0)
(-0.0102762 0.00742037 0)
(-0.0161532 0.00901006 0)
(-0.0223774 0.010142 0)
(-0.028898 0.0110322 0)
(-0.0356394 0.0117876 0)
(-0.0425147 0.0124453 0)
(-0.0494403 0.0130024 0)
(-0.0563483 0.0134599 0)
(-0.0631882 0.0138277 0)
(-0.0699197 0.0141195 0)
(-0.0765109 0.0143476 0)
(-0.0829391 0.0145239 0)
(-0.0891879 0.01466 0)
(-0.0952461 0.014767 0)
(-0.101106 0.0148558 0)
(-0.106762 0.0149368 0)
(-0.112212 0.0150203 0)
(-0.117452 0.0151158 0)
(-0.12248 0.0152306 0)
(-0.127293 0.0153705 0)
(-0.131884 0.0155397 0)
(-0.13624 0.0157412 0)
(-0.140348 0.0159775 0)
(-0.144188 0.0162521 0)
(-0.147733 0.0165688 0)
(-0.150952 0.0169327 0)
(-0.153807 0.0173513 0)
(-0.15625 0.017834 0)
(-0.15822 0.0183929 0)
(-0.159645 0.0190423 0)
(-0.16044 0.0197957 0)
(-0.160508 0.0206594 0)
(-0.159728 0.0216087 0)
(-0.157966 0.0225862 0)
(-0.155062 0.0234886 0)
(-0.150845 0.0241653 0)
(-0.145134 0.0244267 0)
(-0.137778 0.0240637 0)
(-0.128683 0.0228683 0)
(-0.11778 0.0206387 0)
(-0.105031 0.0171853 0)
(-0.0904129 0.0124777 0)
(-0.0740499 0.00656096 0)
(-0.0559465 -0.000430419 0)
(-0.0361511 -0.00835662 0)
(-0.0148289 -0.0170699 0)
(0.00827812 -0.0262928 0)
(0.0328011 -0.0356905 0)
(0.0588968 -0.0451165 0)
(0.0863865 -0.054401 0)
(0.115337 -0.0633989 0)
(0.145468 -0.0718985 0)
(0.176864 -0.0798348 0)
(0.209047 -0.0867766 0)
(0.242124 -0.092894 0)
(0.275674 -0.0979692 0)
(0.309528 -0.102002 0)
(0.343393 -0.104858 0)
(0.376966 -0.106603 0)
(0.410134 -0.10718 0)
(0.442427 -0.106724 0)
(0.473993 -0.105228 0)
(0.504168 -0.102862 0)
(0.53342 -0.0996461 0)
(0.560862 -0.0957805 0)
(0.587329 -0.0913003 0)
(0.611667 -0.0864159 0)
(0.635124 -0.0811568 0)
(0.656214 -0.0757298 0)
(0.676654 -0.0701436 0)
(0.694542 -0.064592 0)
(0.712125 -0.0590516 0)
(0.72698 -0.0537031 0)
(0.741981 -0.0484873 0)
(0.754051 -0.0435774 0)
(0.766818 -0.038877 0)
(0.776389 -0.0345606 0)
(0.78731 -0.0304937 0)
(0.794672 -0.0268622 0)
(0.804154 -0.0234922 0)
(0.809582 -0.0205909 0)
(0.818042 -0.0179436 0)
(0.821786 -0.0157868 0)
(0.829644 -0.0138636 0)
(0.831923 -0.0124465 0)
(0.839611 -0.0112344 0)
(0.840615 -0.010541 0)
(0.848575 -0.0100183 0)
(-0.0011869 0.00675709 0)
(-0.00655623 0.0134471 0)
(-0.0149505 0.0160348 0)
(-0.0232883 0.0171658 0)
(-0.031718 0.0179425 0)
(-0.0399883 0.0186853 0)
(-0.0479602 0.0193825 0)
(-0.0555831 0.0199487 0)
(-0.0628175 0.0203439 0)
(-0.0696222 0.0205836 0)
(-0.07597 0.0206938 0)
(-0.0818468 0.0207 0)
(-0.0872478 0.0206232 0)
(-0.0921737 0.0204824 0)
(-0.0966295 0.0202943 0)
(-0.100622 0.0200734 0)
(-0.104159 0.0198321 0)
(-0.107245 0.0195809 0)
(-0.109887 0.0193294 0)
(-0.112086 0.019085 0)
(-0.113844 0.0188527 0)
(-0.115158 0.018635 0)
(-0.116019 0.0184316 0)
(-0.116414 0.01824 0)
(-0.116323 0.0180565 0)
(-0.115723 0.0178789 0)
(-0.114582 0.0177033 0)
(-0.112862 0.0175251 0)
(-0.110517 0.0173424 0)
(-0.107492 0.0171566 0)
(-0.10372 0.0169706 0)
(-0.099117 0.0167851 0)
(-0.0935806 0.0165992 0)
(-0.0870293 0.0164292 0)
(-0.0793402 0.0162318 0)
(-0.070403 0.0159435 0)
(-0.0600971 0.0154684 0)
(-0.0483089 0.0146768 0)
(-0.0349179 0.0133955 0)
(-0.019826 0.0114194 0)
(-0.00307061 0.00854119 0)
(0.0152447 0.00459395 0)
(0.035068 -0.000486417 0)
(0.0564117 -0.00672591 0)
(0.0791057 -0.014106 0)
(0.103112 -0.0225405 0)
(0.128448 -0.0318734 0)
(0.154897 -0.0418182 0)
(0.182611 -0.0522739 0)
(0.211324 -0.0629563 0)
(0.241164 -0.0736814 0)
(0.271874 -0.0842015 0)
(0.303576 -0.0943432 0)
(0.3359 -0.103851 0)
(0.368903 -0.112571 0)
(0.402138 -0.120245 0)
(0.435604 -0.126808 0)
(0.468857 -0.132085 0)
(0.501812 -0.136057 0)
(0.534083 -0.138611 0)
(0.565538 -0.139819 0)
(0.595939 -0.139642 0)
(0.625089 -0.138227 0)
(0.652963 -0.135588 0)
(0.679262 -0.131931 0)
(0.70422 -0.127299 0)
(0.727377 -0.121939 0)
(0.749269 -0.115898 0)
(0.769217 -0.109439 0)
(0.788098 -0.102589 0)
(0.804946 -0.0956085 0)
(0.821022 -0.0884861 0)
(0.834994 -0.081473 0)
(0.848563 -0.0745091 0)
(0.85994 -0.0678373 0)
(0.871343 -0.0613458 0)
(0.880429 -0.0552759 0)
(0.890023 -0.0494643 0)
(0.897113 -0.0441608 0)
(0.905252 -0.0391512 0)
(0.910622 -0.0347046 0)
(0.917648 -0.0305562 0)
(0.921544 -0.0270055 0)
(0.927785 -0.0237364 0)
(0.930424 -0.0210882 0)
(0.936197 -0.0186925 0)
(0.937769 -0.0169369 0)
(0.943389 -0.0153986 0)
(0.944061 -0.0145214 0)
(0.949845 -0.0138294 0)
(-0.00361241 0.00640588 0)
(-0.0132905 0.0166842 0)
(-0.0242503 0.021437 0)
(-0.0333701 0.0241651 0)
(-0.0417327 0.0258034 0)
(-0.0495176 0.0267027 0)
(-0.0566589 0.0270618 0)
(-0.063003 0.0270548 0)
(-0.0684354 0.0268088 0)
(-0.072942 0.0263904 0)
(-0.0765682 0.0258458 0)
(-0.0793642 0.0252072 0)
(-0.0813811 0.0245017 0)
(-0.0826674 0.0237513 0)
(-0.0832677 0.0229735 0)
(-0.0832215 0.022182 0)
(-0.0825623 0.0213868 0)
(-0.0813158 0.0205941 0)
(-0.0795041 0.0198107 0)
(-0.0771432 0.0190408 0)
(-0.0742434 0.0182841 0)
(-0.0708095 0.0175377 0)
(-0.0668393 0.0167957 0)
(-0.0623234 0.0160494 0)
(-0.0572417 0.0152884 0)
(-0.0515795 0.0145088 0)
(-0.0453069 0.0137038 0)
(-0.0383865 0.0128595 0)
(-0.0307743 0.0119647 0)
(-0.0224183 0.0110114 0)
(-0.0132558 0.00999245 0)
(-0.00321187 0.00889704 0)
(0.00786325 0.00770301 0)
(0.0199956 0.00637646 0)
(0.033293 0.00488243 0)
(0.047867 0.00317972 0)
(0.06382 0.00118558 0)
(0.0812316 -0.00120923 0)
(0.100177 -0.00415108 0)
(0.120691 -0.00777251 0)
(0.142729 -0.0122286 0)
(0.166255 -0.0177107 0)
(0.191221 -0.0242408 0)
(0.217493 -0.0318435 0)
(0.244998 -0.0404668 0)
(0.273558 -0.0500199 0)
(0.303187 -0.0603817 0)
(0.333646 -0.0713479 0)
(0.364987 -0.0827319 0)
(0.396918 -0.0942798 0)
(0.429483 -0.105774 0)
(0.462321 -0.116941 0)
(0.495475 -0.127571 0)
(0.528489 -0.137387 0)
(0.561382 -0.146209 0)
(0.593637 -0.153795 0)
(0.62528 -0.160027 0)
(0.655794 -0.164745 0)
(0.685244 -0.167925 0)
(0.713179 -0.169487 0)
(0.739714 -0.169511 0)
(0.764526 -0.167997 0)
(0.787757 -0.16511 0)
(0.809233 -0.160908 0)
(0.829079 -0.155624 0)
(0.847285 -0.149342 0)
(0.863897 -0.142336 0)
(0.879088 -0.134681 0)
(0.892763 -0.12666 0)
(0.9053 -0.118315 0)
(0.916407 -0.109923 0)
(0.926694 -0.10147 0)
(0.935611 -0.0932229 0)
(0.94404 -0.0851099 0)
(0.951116 -0.0773887 0)
(0.958043 -0.0699271 0)
(0.963583 -0.0629839 0)
(0.969321 -0.0563684 0)
(0.973582 -0.0503522 0)
(0.978403 -0.044688 0)
(0.981598 -0.0396718 0)
(0.985739 -0.0350008 0)
(0.988042 -0.0310069 0)
(0.991712 -0.0273317 0)
(0.993268 -0.0243539 0)
(0.996657 -0.021658 0)
(0.997585 -0.0196788 0)
(1.00088 -0.017942 0)
(1.00128 -0.016948 0)
(1.00465 -0.0161631 0)
(-0.00177589 0.0283272 0)
(-0.00958312 0.0399425 0)
(-0.0242634 0.0400003 0)
(-0.0358937 0.03773 0)
(-0.0451825 0.0359841 0)
(-0.0518549 0.0345762 0)
(-0.0561903 0.0331758 0)
(-0.0585654 0.0317022 0)
(-0.0593312 0.0301694 0)
(-0.0587584 0.0285999 0)
(-0.0570302 0.0270176 0)
(-0.0542891 0.0254382 0)
(-0.0506533 0.0238772 0)
(-0.0462224 0.0223456 0)
(-0.0410793 0.0208493 0)
(-0.035292 0.0193905 0)
(-0.0289181 0.0179691 0)
(-0.0219908 0.0165764 0)
(-0.0145483 0.0152168 0)
(-0.0066146 0.0138907 0)
(0.00180007 0.0125899 0)
(0.0106889 0.0113049 0)
(0.0200563 0.0100246 0)
(0.0299104 0.00873513 0)
(0.0402984 0.00741488 0)
(0.0512177 0.00603635 0)
(0.0626927 0.00457945 0)
(0.0747759 0.00303689 0)
(0.0875139 0.0013968 0)
(0.100957 -0.00036002 0)
(0.115172 -0.00225322 0)
(0.130212 -0.00431004 0)
(0.146183 -0.00654118 0)
(0.163123 -0.00898823 0)
(0.181138 -0.0117031 0)
(0.200339 -0.0147408 0)
(0.220812 -0.0181725 0)
(0.242606 -0.0220869 0)
(0.265777 -0.0265909 0)
(0.290335 -0.0317996 0)
(0.316271 -0.0378044 0)
(0.343513 -0.0446885 0)
(0.372 -0.0525043 0)
(0.401561 -0.0612602 0)
(0.432105 -0.0709088 0)
(0.463395 -0.0813486 0)
(0.495349 -0.0924423 0)
(0.527675 -0.103991 0)
(0.56028 -0.11578 0)
(0.592802 -0.12756 0)
(0.625154 -0.139084 0)
(0.656907 -0.150078 0)
(0.688008 -0.160304 0)
(0.71797 -0.169501 0)
(0.746798 -0.177476 0)
(0.773993 -0.184014 0)
(0.799659 -0.189001 0)
(0.823327 -0.192306 0)
(0.845238 -0.193919 0)
(0.864992 -0.193806 0)
(0.882966 -0.192069 0)
(0.898847 -0.188757 0)
(0.9131 -0.184064 0)
(0.925482 -0.178096 0)
(0.93649 -0.171107 0)
(0.945938 -0.16322 0)
(0.954291 -0.154715 0)
(0.961419 -0.14569 0)
(0.967703 -0.136422 0)
(0.973079 -0.126961 0)
(0.977807 -0.117569 0)
(0.981905 -0.108233 0)
(0.985481 -0.0992048 0)
(0.988665 -0.0904067 0)
(0.99139 -0.0820847 0)
(0.993928 -0.0740961 0)
(0.996015 -0.0666935 0)
(0.998098 -0.0596731 0)
(0.999696 -0.0533065 0)
(1.00146 -0.0473309 0)
(1.00268 -0.0420486 0)
(1.00423 -0.037138 0)
(1.00513 -0.0329444 0)
(1.00655 -0.029086 0)
(1.00718 -0.025963 0)
(1.00852 -0.0231308 0)
(1.00892 -0.0210555 0)
(1.01024 -0.019226 0)
(1.01043 -0.0181855 0)
(1.01178 -0.0173501 0)
(-0.0198466 0.00788859 0)
(-0.0384704 0.0315811 0)
(-0.0419474 0.0390765 0)
(-0.0442271 0.0399814 0)
(-0.0432368 0.0383687 0)
(-0.0398448 0.0356259 0)
(-0.0345005 0.0325642 0)
(-0.0275239 0.0295082 0)
(-0.0191823 0.0265748 0)
(-0.00974502 0.0238163 0)
(0.000601825 0.0212148 0)
(0.0116932 0.0187488 0)
(0.0233897 0.0164083 0)
(0.0355825 0.0141853 0)
(0.0481876 0.012071 0)
(0.0611459 0.0100553 0)
(0.0743867 0.00813083 0)
(0.0879348 0.00628672 0)
(0.101738 0.00449736 0)
(0.115772 0.00274064 0)
(0.130055 0.00100631 0)
(0.14459 -0.000716853 0)
(0.159403 -0.00244735 0)
(0.174505 -0.00420781 0)
(0.189946 -0.00602305 0)
(0.205743 -0.00791847 0)
(0.221936 -0.00992358 0)
(0.238591 -0.012064 0)
(0.255762 -0.0143621 0)
(0.273497 -0.0168418 0)
(0.291856 -0.0195287 0)
(0.310897 -0.0224511 0)
(0.330687 -0.025639 0)
(0.351289 -0.0291195 0)
(0.372769 -0.0329285 0)
(0.395191 -0.037123 0)
(0.418607 -0.0417657 0)
(0.443051 -0.0469298 0)
(0.468536 -0.0526871 0)
(0.495044 -0.0591161 0)
(0.522531 -0.0662734 0)
(0.550894 -0.0742049 0)
(0.580017 -0.0829205 0)
(0.609708 -0.0923954 0)
(0.639793 -0.102552 0)
(0.670005 -0.113274 0)
(0.700144 -0.124401 0)
(0.72988 -0.135741 0)
(0.758991 -0.147076 0)
(0.787102 -0.158165 0)
(0.814026 -0.168754 0)
(0.839371 -0.178585 0)
(0.863038 -0.187418 0)
(0.884648 -0.195022 0)
(0.904246 -0.201215 0)
(0.921499 -0.205833 0)
(0.93663 -0.20879 0)
(0.94936 -0.210016 0)
(0.960108 -0.209538 0)
(0.968635 -0.207381 0)
(0.975531 -0.203673 0)
(0.980562 -0.198517 0)
(0.984432 -0.192122 0)
(0.986863 -0.184633 0)
(0.98861 -0.176304 0)
(0.989322 -0.167275 0)
(0.989752 -0.157809 0)
(0.989474 -0.148004 0)
(0.989207 -0.138108 0)
(0.988461 -0.128159 0)
(0.987909 -0.118391 0)
(0.987019 -0.10878 0)
(0.986419 -0.0995512 0)
(0.985563 -0.0906173 0)
(0.985033 -0.0822066 0)
(0.984295 -0.0741669 0)
(0.983885 -0.0667401 0)
(0.98329 -0.0597136 0)
(0.983009 -0.0533554 0)
(0.982555 -0.0473935 0)
(0.982394 -0.0421328 0)
(0.982064 -0.037241 0)
(0.982002 -0.0330712 0)
(0.981768 -0.029229 0)
(0.981779 -0.0261264 0)
(0.981606 -0.0233037 0)
(0.981657 -0.0212431 0)
(0.981505 -0.0194156 0)
(0.98156 -0.0183842 0)
(0.981383 -0.0175439 0)
(-0.0192327 0.108291 0)
(-0.0185482 0.0727918 0)
(-0.0118272 0.0579795 0)
(0.000724953 0.0460836 0)
(0.0172275 0.0362618 0)
(0.0359781 0.0286874 0)
(0.0560035 0.0227146 0)
(0.0766432 0.0177743 0)
(0.0975636 0.0134875 0)
(0.11838 0.00967662 0)
(0.13911 0.00627587 0)
(0.159681 0.00324028 0)
(0.180028 0.000503145 0)
(0.200127 -0.00200308 0)
(0.219966 -0.00433011 0)
(0.239564 -0.00651376 0)
(0.258904 -0.00858243 0)
(0.278039 -0.0105602 0)
(0.296962 -0.0124725 0)
(0.315688 -0.0143489 0)
(0.33427 -0.0162161 0)
(0.352748 -0.018098 0)
(0.371162 -0.0200201 0)
(0.389557 -0.0220099 0)
(0.407984 -0.0240963 0)
(0.426494 -0.0263055 0)
(0.445141 -0.0286617 0)
(0.463984 -0.0311952 0)
(0.483079 -0.0339357 0)
(0.50248 -0.0369106 0)
(0.522237 -0.0401446 0)
(0.542397 -0.0436638 0)
(0.563005 -0.0474941 0)
(0.584103 -0.0516646 0)
(0.605722 -0.0562073 0)
(0.627886 -0.0611616 0)
(0.650602 -0.0665695 0)
(0.673863 -0.0724762 0)
(0.69763 -0.0789238 0)
(0.721847 -0.085952 0)
(0.74641 -0.0935873 0)
(0.771181 -0.101842 0)
(0.795982 -0.110696 0)
(0.8206 -0.120097 0)
(0.844795 -0.12995 0)
(0.868295 -0.140126 0)
(0.890828 -0.150456 0)
(0.912088 -0.160751 0)
(0.931816 -0.170789 0)
(0.949733 -0.180344 0)
(0.965657 -0.189175 0)
(0.979366 -0.197058 0)
(0.990814 -0.203779 0)
(0.999866 -0.209163 0)
(1.00666 -0.213067 0)
(1.01114 -0.215398 0)
(1.01364 -0.216113 0)
(1.01415 -0.215214 0)
(1.0132 -0.212767 0)
(1.01076 -0.208853 0)
(1.00746 -0.203616 0)
(1.00319 -0.197193 0)
(0.998656 -0.189786 0)
(0.993559 -0.181546 0)
(0.98868 -0.172692 0)
(0.983504 -0.163354 0)
(0.978865 -0.153746 0)
(0.974048 -0.143948 0)
(0.969947 -0.134158 0)
(0.965669 -0.1244 0)
(0.96219 -0.114867 0)
(0.958463 -0.105525 0)
(0.955573 -0.0965768 0)
(0.952341 -0.0879268 0)
(0.949977 -0.0797929 0)
(0.94717 -0.0720164 0)
(0.945272 -0.0648411 0)
(0.942822 -0.0580417 0)
(0.941339 -0.0518996 0)
(0.939184 -0.0461209 0)
(0.938073 -0.0410368 0)
(0.936152 -0.0362831 0)
(0.935372 -0.0322527 0)
(0.933614 -0.0285063 0)
(0.93312 -0.0255083 0)
(0.931446 -0.0227403 0)
(0.931185 -0.0207498 0)
(0.929499 -0.0189353 0)
(0.929407 -0.0179391 0)
(0.927599 -0.0170706 0)
(0.070201 0.00709894 0)
(0.0904275 0.00645523 0)
(0.154331 0.00587905 0)
(0.199605 0.00257811 0)
(0.23882 -0.00185758 0)
(0.274587 -0.00613569 0)
(0.307677 -0.00986841 0)
(0.338015 -0.0130736 0)
(0.366298 -0.0158576 0)
(0.392838 -0.0183018 0)
(0.417991 -0.0204855 0)
(0.441954 -0.0224654 0)
(0.464847 -0.0242827 0)
(0.486778 -0.0259719 0)
(0.507845 -0.0275596 0)
(0.528142 -0.0290716 0)
(0.54774 -0.0305289 0)
(0.566713 -0.0319594 0)
(0.585117 -0.0333849 0)
(0.603013 -0.0348269 0)
(0.620461 -0.0363117 0)
(0.637524 -0.0378673 0)
(0.654261 -0.0395204 0)
(0.670727 -0.0412976 0)
(0.686979 -0.0432242 0)
(0.703071 -0.045326 0)
(0.719056 -0.0476266 0)
(0.734981 -0.0501514 0)
(0.750896 -0.0529242 0)
(0.766838 -0.0559692 0)
(0.78284 -0.05931 0)
(0.798927 -0.0629688 0)
(0.815118 -0.066967 0)
(0.831421 -0.0713259 0)
(0.847835 -0.0760673 0)
(0.864344 -0.0812138 0)
(0.880916 -0.0867888 0)
(0.897501 -0.0928142 0)
(0.914021 -0.0993079 0)
(0.930377 -0.10628 0)
(0.94643 -0.11373 0)
(0.962022 -0.121638 0)
(0.976964 -0.12996 0)
(0.991055 -0.138624 0)
(1.00407 -0.147523 0)
(1.01579 -0.156525 0)
(1.026 -0.165464 0)
(1.0345 -0.174157 0)
(1.04113 -0.182401 0)
(1.04577 -0.189996 0)
(1.04837 -0.196744 0)
(1.04894 -0.202473 0)
(1.04755 -0.207031 0)
(1.04433 -0.210307 0)
(1.03952 -0.21222 0)
(1.03332 -0.212739 0)
(1.02609 -0.211863 0)
(1.01803 -0.209637 0)
(1.00954 -0.20613 0)
(1.00073 -0.201451 0)
(0.992036 -0.195727 0)
(0.983353 -0.189096 0)
(0.975135 -0.181705 0)
(0.967059 -0.173686 0)
(0.959638 -0.165186 0)
(0.95231 -0.156313 0)
(0.945715 -0.147209 0)
(0.939065 -0.137947 0)
(0.933192 -0.12867 0)
(0.927076 -0.119413 0)
(0.921792 -0.110326 0)
(0.916076 -0.101404 0)
(0.911291 -0.0928135 0)
(0.905907 -0.0844947 0)
(0.901611 -0.0766397 0)
(0.89655 -0.0691244 0)
(0.892777 -0.0621751 0)
(0.888048 -0.055589 0)
(0.884842 -0.049639 0)
(0.880439 -0.0440332 0)
(0.877831 -0.0391124 0)
(0.873711 -0.0344906 0)
(0.871707 -0.0305968 0)
(0.867786 -0.0269394 0)
(0.86637 -0.0240513 0)
(0.862524 -0.0213234 0)
(0.861655 -0.0194115 0)
(0.857714 -0.0175789 0)
(0.857329 -0.0166235 0)
(0.853089 -0.0156684 0)
(0.774409 -0.00947698 0)
(0.776222 -0.0210878 0)
(0.777319 -0.0274683 0)
(0.779283 -0.0313216 0)
(0.783258 -0.0341281 0)
(0.789019 -0.0364985 0)
(0.796292 -0.0385637 0)
(0.804443 -0.0402983 0)
(0.813259 -0.0417148 0)
(0.822513 -0.0428592 0)
(0.832026 -0.0438089 0)
(0.841669 -0.0446356 0)
(0.851345 -0.0453853 0)
(0.860983 -0.0460856 0)
(0.87053 -0.0467541 0)
(0.879946 -0.0474084 0)
(0.8892 -0.0480662 0)
(0.898275 -0.0487492 0)
(0.90716 -0.0494791 0)
(0.915852 -0.0502798 0)
(0.924356 -0.0511765 0)
(0.932683 -0.0521967 0)
(0.940848 -0.0533667 0)
(0.948865 -0.0547126 0)
(0.956754 -0.0562585 0)
(0.964529 -0.0580277 0)
(0.972209 -0.0600418 0)
(0.979804 -0.0623212 0)
(0.987326 -0.0648847 0)
(0.994779 -0.0677503 0)
(1.00216 -0.0709349 0)
(1.00946 -0.0744534 0)
(1.01668 -0.0783197 0)
(1.02379 -0.0825456 0)
(1.03075 -0.0871428 0)
(1.03754 -0.0921214 0)
(1.0441 -0.0974903 0)
(1.05036 -0.103255 0)
(1.05624 -0.109416 0)
(1.06163 -0.115963 0)
(1.06643 -0.122872 0)
(1.07051 -0.130101 0)
(1.07374 -0.137588 0)
(1.07598 -0.145252 0)
(1.0771 -0.152986 0)
(1.077 -0.160666 0)
(1.07559 -0.16815 0)
(1.07281 -0.175283 0)
(1.06867 -0.181907 0)
(1.0632 -0.18787 0)
(1.05649 -0.19303 0)
(1.04868 -0.197264 0)
(1.03995 -0.200468 0)
(1.03051 -0.202573 0)
(1.02057 -0.203534 0)
(1.01037 -0.203344 0)
(1.00009 -0.20201 0)
(0.98988 -0.199573 0)
(0.979862 -0.196081 0)
(0.970046 -0.191618 0)
(0.960492 -0.186259 0)
(0.951082 -0.180099 0)
(0.941892 -0.173224 0)
(0.932686 -0.165736 0)
(0.923631 -0.157728 0)
(0.914378 -0.149303 0)
(0.905271 -0.140556 0)
(0.895834 -0.13159 0)
(0.886652 -0.122514 0)
(0.877061 -0.113428 0)
(0.867929 -0.10445 0)
(0.858337 -0.0956473 0)
(0.849488 -0.0871359 0)
(0.84012 -0.0789383 0)
(0.831833 -0.0711772 0)
(0.822917 -0.0638207 0)
(0.815452 -0.0570095 0)
(0.807155 -0.0506369 0)
(0.800707 -0.0448748 0)
(0.793093 -0.0395234 0)
(0.787768 -0.0348189 0)
(0.780778 -0.0304592 0)
(0.776602 -0.0267796 0)
(0.770077 -0.0233549 0)
(0.767035 -0.0206508 0)
(0.760732 -0.0180941 0)
(0.758784 -0.0163152 0)
(0.752372 -0.0145677 0)
(0.751466 -0.0136802 0)
(0.744539 -0.0127061 0)
(1.05758 0.00783471 0)
(1.06077 -0.000714842 0)
(1.0616 -0.00803802 0)
(1.06098 -0.013866 0)
(1.06024 -0.0186784 0)
(1.06007 -0.0228864 0)
(1.06064 -0.0266665 0)
(1.06177 -0.0300327 0)
(1.06325 -0.0329835 0)
(1.06494 -0.0355438 0)
(1.06673 -0.0377585 0)
(1.06859 -0.0396827 0)
(1.0705 -0.0413688 0)
(1.07241 -0.0428634 0)
(1.07432 -0.0442058 0)
(1.0762 -0.0454326 0)
(1.07804 -0.0465777 0)
(1.0798 -0.0476756 0)
(1.08148 -0.0487601 0)
(1.08308 -0.049866 0)
(1.08458 -0.0510271 0)
(1.08598 -0.052278 0)
(1.08728 -0.0536511 0)
(1.08849 -0.0551781 0)
(1.0896 -0.0568878 0)
(1.09061 -0.0588071 0)
(1.09152 -0.0609602 0)
(1.09232 -0.0633688 0)
(1.09302 -0.0660518 0)
(1.0936 -0.0690249 0)
(1.09406 -0.0723007 0)
(1.09437 -0.0758892 0)
(1.09452 -0.0797992 0)
(1.09449 -0.0840369 0)
(1.09426 -0.0886081 0)
(1.09378 -0.0935147 0)
(1.09303 -0.0987579 0)
(1.09197 -0.104332 0)
(1.09053 -0.110227 0)
(1.08868 -0.116421 0)
(1.08635 -0.122883 0)
(1.08348 -0.129563 0)
(1.08001 -0.136399 0)
(1.07591 -0.143311 0)
(1.07114 -0.150204 0)
(1.06568 -0.156973 0)
(1.05952 -0.163503 0)
(1.0527 -0.169673 0)
(1.04525 -0.175364 0)
(1.03725 -0.180462 0)
(1.02877 -0.184861 0)
(1.01988 -0.188461 0)
(1.01067 -0.191178 0)
(1.00118 -0.19294 0)
(0.991449 -0.193692 0)
(0.981483 -0.193402 0)
(0.971252 -0.192056 0)
(0.960699 -0.189671 0)
(0.949738 -0.186276 0)
(0.938277 -0.181914 0)
(0.92623 -0.176617 0)
(0.913521 -0.17044 0)
(0.900123 -0.163449 0)
(0.886004 -0.155757 0)
(0.87125 -0.147472 0)
(0.855862 -0.138728 0)
(0.840052 -0.129631 0)
(0.823808 -0.120322 0)
(0.807478 -0.11093 0)
(0.790957 -0.101616 0)
(0.77476 -0.0924988 0)
(0.758612 -0.0837014 0)
(0.743218 -0.0752926 0)
(0.728022 -0.0673447 0)
(0.713975 -0.0598933 0)
(0.70014 -0.0529752 0)
(0.687817 -0.0466099 0)
(0.675569 -0.0407956 0)
(0.665185 -0.0355503 0)
(0.654562 -0.0308284 0)
(0.646164 -0.0266675 0)
(0.636992 -0.0229581 0)
(0.630492 -0.0197901 0)
(0.622448 -0.01697 0)
(0.61772 -0.0146874 0)
(0.610362 -0.0126332 0)
(0.607286 -0.0111484 0)
(0.600048 -0.00976607 0)
(0.598554 -0.00902871 0)
(0.590736 -0.00826826 0)
(1.08209 -0.0037456 0)
(1.0881 -0.0114634 0)
(1.09241 -0.0189552 0)
(1.09507 -0.0252292 0)
(1.09656 -0.0301426 0)
(1.09752 -0.0340186 0)
(1.09833 -0.0372151 0)
(1.09915 -0.0399587 0)
(1.09998 -0.0423435 0)
(1.10076 -0.0443956 0)
(1.10146 -0.0461293 0)
(1.10205 -0.0475728 0)
(1.10255 -0.0487672 0)
(1.10295 -0.0497618 0)
(1.10328 -0.0506042 0)
(1.10351 -0.05134 0)
(1.10366 -0.0520094 0)
(1.10371 -0.0526516 0)
(1.10366 -0.0533022 0)
(1.1035 -0.0539976 0)
(1.10322 -0.0547712 0)
(1.10283 -0.0556575 0)
(1.10231 -0.0566873 0)
(1.10168 -0.0578917 0)
(1.10092 -0.0592971 0)
(1.10003 -0.0609295 0)
(1.09902 -0.0628095 0)
(1.09788 -0.0649568 0)
(1.0966 -0.0673856 0)
(1.09519 -0.0701089 0)
(1.09363 -0.0731351 0)
(1.09192 -0.0764714 0)
(1.09005 -0.0801226 0)
(1.08801 -0.0840916 0)
(1.08579 -0.08838 0)
(1.08338 -0.0929852 0)
(1.08075 -0.0979033 0)
(1.07789 -0.103123 0)