/*--------------------------------*- C++ -*----------------------------------*\
| =========                 |                                                 |
| \\      /  F ield         | OpenFOAM: The Open Source CFD Toolbox           |
|  \\    /   O peration     | Version:  2306                                  |
|   \\  /    A nd           | Website:  www.openfoam.com                      |
|    \\/     M anipulation  |                                                 |
\*---------------------------------------------------------------------------*/
FoamFile
{
    version     2.0;
    format      ascii;
    arch        "LSB;label=32;scalar=64";
    class       volScalarField;
    location    "9.1";
    object      p;
}
// * * * * * * * * * * * * * * * * * * * * * * * * * * * * * * * * * * * * * //

dimensions      [0 2 -2 0 0 0 0];

internalField   nonuniform List<scalar> 
1900
(
0.0529621
0.028745
0.00835707
-0.0069771
-0.0179887
-0.0285305
-0.0389543
-0.051093
-0.0636143
-0.0776226
0.0237008
0.0155037
0.00419165
-0.00735547
-0.0183717
-0.0285487
-0.0389665
-0.049461
-0.0609347
-0.0719684
0.0146028
0.0101134
0.00260081
-0.00676298
-0.0168408
-0.0268125
-0.0365831
-0.0461258
-0.0555413
-0.0646112
0.00889622
0.00582365
0.000175663
-0.00746992
-0.0163177
-0.0255533
-0.0347388
-0.0436465
-0.0522323
-0.0603872
0.00666534
0.00413019
-0.000608006
-0.00725546
-0.0152334
-0.0238358
-0.0325096
-0.0409325
-0.0489569
-0.0564944
0.0072928
0.00481162
0.000200064
-0.00626628
-0.0140066
-0.0223129
-0.0306266
-0.0386313
-0.0462035
-0.0533149
0.0107419
0.00779496
0.00251191
-0.00457418
-0.0126387
-0.0209314
-0.0289871
-0.0366288
-0.043849
-0.050683
0.0174356
0.0131387
0.00623813
-0.00223514
-0.0110613
-0.0194942
-0.0273384
-0.034688
-0.0416932
-0.0484167
0.0275717
0.0194709
0.00903141
-0.00143499
-0.0107497
-0.0188716
-0.0262535
-0.0333188
-0.0402316
-0.0469524
0.0564199
0.0337455
0.0140346
-3.42197e-05
-0.00970005
-0.0174064
-0.02465
-0.0318863
-0.0390659
-0.0459842
-0.100748
-0.100782
-0.100827
-0.100881
-0.100941
-0.101007
-0.101078
-0.101153
-0.101231
-0.10131
-0.101388
-0.101464
-0.101535
-0.1016
-0.101657
-0.101704
-0.101739
-0.101761
-0.101769
-0.10176
-0.101734
-0.101688
-0.101624
-0.101538
-0.101431
-0.101302
-0.10115
-0.100975
-0.100776
-0.100553
-0.100305
-0.100031
-0.099732
-0.0994056
-0.0990512
-0.0986674
-0.0982525
-0.0978042
-0.0973195
-0.0967944
-0.0962239
-0.095601
-0.094917
-0.0941605
-0.0933168
-0.0923678
-0.0912915
-0.0900627
-0.0886529
-0.0870307
-0.0851622
-0.0830105
-0.0805366
-0.0776992
-0.0744545
-0.0707589
-0.0665777
-0.0618893
-0.0566749
-0.0509405
-0.0447233
-0.0380717
-0.0310561
-0.0237711
-0.0163282
-0.00885207
-0.00147245
0.00568074
0.0124763
0.0188053
0.0245513
0.029647
0.0340068
0.0376119
0.0404062
0.0424148
0.0436164
0.0440657
0.0437598
0.0427797
0.0411252
0.0388931
0.0360718
0.0327676
0.0289399
0.024709
0.0199746
0.0149008
0.00925937
0.0033702
-0.100743
-0.100775
-0.100802
-0.100843
-0.100894
-0.100954
-0.101019
-0.10109
-0.101164
-0.10124
-0.101315
-0.101388
-0.101458
-0.101521
-0.101577
-0.101624
-0.101659
-0.101681
-0.101688
-0.10168
-0.101654
-0.101609
-0.101544
-0.101459
-0.101352
-0.101223
-0.101071
-0.100895
-0.100695
-0.10047
-0.10022
-0.0999434
-0.0996405
-0.0993098
-0.0989502
-0.0985602
-0.098138
-0.0976812
-0.0971868
-0.0966508
-0.0960683
-0.0954327
-0.094736
-0.0939679
-0.0931158
-0.0921639
-0.0910931
-0.0898807
-0.0885011
-0.0869254
-0.0851205
-0.0830481
-0.0806654
-0.0779262
-0.0747804
-0.0711753
-0.0670704
-0.0624613
-0.0573327
-0.0516833
-0.0455265
-0.0389165
-0.0319264
-0.0246539
-0.0172111
-0.00972498
-0.00233126
0.00484086
0.011647
0.0180006
0.0237527
0.0288622
0.0332262
0.0368387
0.0396373
0.0416538
0.0428577
0.0433176
0.0430162
0.0420527
0.040407
0.0382006
0.0353946
0.0321273
0.0283238
0.0241398
0.0194484
0.0144308
0.00891018
0.00314305
-0.100626
-0.100708
-0.100753
-0.100806
-0.100862
-0.100923
-0.100991
-0.101063
-0.10114
-0.101218
-0.101297
-0.101374
-0.101447
-0.101514
-0.101574
-0.101624
-0.101663
-0.101688
-0.101699
-0.101693
-0.10167
-0.101627
-0.101564
-0.10148
-0.101374
-0.101246
-0.101093
-0.100917
-0.100716
-0.100491
-0.100239
-0.0999624
-0.0996588
-0.0993278
-0.0989683
-0.098579
-0.0981583
-0.097704
-0.0972133
-0.0966823
-0.096106
-0.0954778
-0.09479
-0.0940334
-0.0931971
-0.0922681
-0.0912296
-0.090061
-0.0887377
-0.0872329
-0.0855133
-0.0835371
-0.0812536
-0.0786152
-0.0755789
-0.0720894
-0.0680894
-0.0635352
-0.0584248
-0.052774
-0.0466096
-0.0399911
-0.0329895
-0.0257008
-0.0182508
-0.010767
-0.00338946
0.0037701
0.0105575
0.0168848
0.0226126
0.0276923
0.032026
0.0356068
0.0383753
0.0403653
0.0415475
0.0419935
0.0416881
0.0407307
0.0391062
0.0369318
0.0341794
0.0309756
0.0272678
0.0231886
0.0186547
0.0138086
0.00854605
0.00303475
-0.100707
-0.100782
-0.100786
-0.100812
-0.100858
-0.10092
-0.100993
-0.101073
-0.101158
-0.101245
-0.101333
-0.101418
-0.101498
-0.101573
-0.101638
-0.101694
-0.101737
-0.101766
-0.10178
-0.101776
-0.101754
-0.101712
-0.10165
-0.101565
-0.101458
-0.101328
-0.101174
-0.100995
-0.100791
-0.100563
-0.100308
-0.100029
-0.0997224
-0.0993895
-0.0990287
-0.0986388
-0.0982187
-0.0977665
-0.0972797
-0.0967546
-0.0961863
-0.0955682
-0.0948925
-0.0941516
-0.0933367
-0.0924362
-0.0914343
-0.0903113
-0.089041
-0.0876
-0.0859548
-0.0840608
-0.0818616
-0.0792998
-0.0763111
-0.0728578
-0.0688876
-0.0643679
-0.0592879
-0.053665
-0.047527
-0.0409383
-0.0339768
-0.0267433
-0.0193632
-0.0119611
-0.00468003
0.002364
0.00902745
0.0152165
0.0208097
0.0257505
0.0299563
0.0334144
0.0360793
0.0379794
0.0390987
0.039501
0.039186
0.0382413
0.0366691
0.0345696
0.0319363
0.0288739
0.0253596
0.0214986
0.017249
0.0127184
0.00784632
0.00274943
-0.100385
-0.100589
-0.10068
-0.100784
-0.100882
-0.100975
-0.101068
-0.101163
-0.10126
-0.101357
-0.101453
-0.101546
-0.101632
-0.101711
-0.101781
-0.101839
-0.101883
-0.101913
-0.101926
-0.101922
-0.101898
-0.101853
-0.101787
-0.101699
-0.101588
-0.101453
-0.101294
-0.101111
-0.100902
-0.100669
-0.100411
-0.100128
-0.0998194
-0.0994854
-0.0991244
-0.098735
-0.0983166
-0.0978678
-0.0973861
-0.0968679
-0.0963083
-0.0957004
-0.0950357
-0.09431
-0.0935153
-0.0926388
-0.0916638
-0.0905743
-0.0893378
-0.0879221
-0.0862902
-0.0844054
-0.0822087
-0.0796493
-0.0766637
-0.0732092
-0.0692358
-0.0647222
-0.0596591
-0.0540687
-0.0479868
-0.0414799
-0.0346308
-0.0275435
-0.0203386
-0.0131415
-0.00608733
0.000704168
0.00710636
0.0130221
0.0183501
0.0230302
0.0269981
0.0302371
0.0327195
0.034468
0.0354834
0.0358197
0.0354938
0.0345789
0.0330959
0.0311264
0.0286852
0.0258554
0.0226398
0.01912
0.0152845
0.0112158
0.00688941
0.00239637
-0.101215
-0.101238
-0.101137
-0.101092
-0.101103
-0.10116
-0.101248
-0.101349
-0.101451
-0.101552
-0.10165
-0.101742
-0.101826
-0.101902
-0.101967
-0.10202
-0.102058
-0.102082
-0.102089
-0.102077
-0.102046
-0.101995
-0.101922
-0.101828
-0.10171
-0.10157
-0.101405
-0.101216
-0.101004
-0.100766
-0.100505
-0.100219
-0.0999088
-0.0995735
-0.0992118
-0.0988218
-0.0984059
-0.0979616
-0.0974851
-0.0969731
-0.0964204
-0.0958211
-0.0951652
-0.0944419
-0.093643
-0.0927595
-0.0917728
-0.0906638
-0.0894019
-0.087958
-0.0862906
-0.0843601
-0.0821104
-0.0794932
-0.0764516
-0.0729461
-0.0689386
-0.0644148
-0.0593724
-0.053839
-0.0478576
-0.041499
-0.0348487
-0.0280126
-0.0211053
-0.01425
-0.00756888
-0.00117828
0.00481321
0.0103128
0.015239
0.0195347
0.0231549
0.0260834
0.0283106
0.029856
0.0307368
0.0309985
0.0306731
0.0298207
0.0284769
0.0267064
0.0245401
0.0220414
0.0192317
0.0161717
0.012872
0.00939313
0.00573699
0.00196845
-0.099895
-0.100539
-0.100741
-0.100996
-0.101211
-0.101373
-0.101495
-0.101595
-0.101688
-0.101776
-0.101859
-0.101936
-0.102006
-0.102068
-0.102119
-0.102159
-0.102185
-0.102198
-0.102194
-0.102174
-0.102135
-0.102076
-0.101996
-0.101896
-0.101773
-0.101627
-0.101458
-0.101265
-0.101049
-0.10081
-0.100547
-0.100261
-0.0999502
-0.0996155
-0.0992549
-0.098865
-0.0984422
-0.0979889
-0.0975023
-0.0969776
-0.096408
-0.0957868
-0.0951044
-0.0943521
-0.0935178
-0.0925897
-0.0915476
-0.090371
-0.0890296
-0.0874927
-0.0857197
-0.0836717
-0.0813004
-0.0785628
-0.0754134
-0.0718204
-0.0677577
-0.0632206
-0.0582167
-0.0527807
-0.0469619
-0.0408354
-0.0344868
-0.0280208
-0.0215444
-0.0151737
-0.00901566
-0.00317503
0.00225995
0.00720856
0.0116099
0.0154163
0.0186017
0.0211547
0.0230819
0.0244019
0.0251446
0.0253483
0.0250554
0.0243133
0.0231672
0.0216656
0.0198498
0.0177649
0.0154446
0.0129297
0.010246
0.0074323
0.00450847
0.00151504
-0.1046
-0.103221
-0.102593
-0.102159
-0.101932
-0.101842
-0.10183
-0.101854
-0.101893
-0.101939
-0.101988
-0.102037
-0.102084
-0.102126
-0.102162
-0.102189
-0.102206
-0.102211
-0.102199
-0.102171
-0.102125
-0.102061
-0.101978
-0.101874
-0.101749
-0.101603
-0.101433
-0.101237
-0.101015
-0.100769
-0.100498
-0.100202
-0.0998782
-0.0995268
-0.0991456
-0.0987322
-0.0982842
-0.0977999
-0.0972753
-0.0967051
-0.0960818
-0.0953977
-0.0946424
-0.0938053
-0.0928728
-0.0918308
-0.0906598
-0.0893382
-0.0878378
-0.0861287
-0.0841751
-0.081942
-0.0793904
-0.0764864
-0.0731979
-0.0695052
-0.0653958
-0.0608756
-0.0559631
-0.0506995
-0.045138
-0.0393541
-0.0334295
-0.0274632
-0.0215507
-0.0157963
-0.01029
-0.00512044
-0.000353012
0.00394878
0.00774592
0.0110035
0.0137135
0.0158704
0.0174935
0.0185996
0.0192272
0.019406
0.0191843
0.0185964
0.0176928
0.0165061
0.0150839
0.0134537
0.0116577
0.00971733
0.0076695
0.005531
0.00333334
0.00108994
-0.0987672
-0.0998475
-0.100683
-0.101294
-0.10161
-0.101729
-0.101764
-0.101779
-0.101794
-0.101824
-0.101862
-0.101902
-0.101942
-0.10198
-0.102012
-0.102037
-0.102053
-0.102061
-0.10206
-0.10204
-0.101999
-0.101937
-0.101852
-0.101745
-0.101613
-0.101455
-0.101273
-0.101062
-0.100822
-0.100553
-0.100253
-0.0999205
-0.0995549
-0.0991543
-0.0987164
-0.0982383
-0.0977164
-0.0971468
-0.0965247
-0.0958443
-0.0950977
-0.0942762
-0.0933691
-0.0923647
-0.0912494
-0.0900087
-0.0886251
-0.0870786
-0.0853457
-0.0834009
-0.0812162
-0.0787644
-0.0760177
-0.0729531
-0.0695502
-0.0657996
-0.0617021
-0.0572751
-0.0525464
-0.0475621
-0.0423766
-0.0370615
-0.0316906
-0.0263505
-0.0211204
-0.0160862
-0.0113166
-0.00688237
-0.00282997
0.000794526
0.0039726
0.00668215
0.00892963
0.0107134
0.012061
0.0129855
0.0135293
0.0137132
0.0135877
0.0131743
0.0125266
0.011662
0.010633
0.00944983
0.008162
0.00677147
0.00532516
0.0038175
0.00229216
0.000733648
-0.121407
-0.106512
-0.104588
-0.103112
-0.102197
-0.101768
-0.101593
-0.101532
-0.101516
-0.101522
-0.101562
-0.101622
-0.101686
-0.101747
-0.101803
-0.101851
-0.101887
-0.10191
-0.101915
-0.101897
-0.101852
-0.101777
-0.101673
-0.101538
-0.10137
-0.10117
-0.100937
-0.100671
-0.100368
-0.100026
-0.0996431
-0.0992169
-0.0987463
-0.0982296
-0.0976643
-0.0970472
-0.0963743
-0.0956414
-0.0948432
-0.0939738
-0.0930258
-0.0919909
-0.0908592
-0.0896201
-0.088261
-0.0867676
-0.085124
-0.0833138
-0.0813192
-0.0791222
-0.0767039
-0.074047
-0.0711358
-0.0679591
-0.0645106
-0.0607931
-0.0568178
-0.0526084
-0.0481966
-0.0436267
-0.0389481
-0.034222
-0.0295097
-0.0248812
-0.0203981
-0.0161265
-0.0121159
-0.00841861
-0.0050651
-0.00208714
0.00051138
0.00271831
0.00454873
0.00600287
0.0071117
0.00788463
0.00836528
0.00856663
0.00853994
0.00829591
0.00788989
0.00732574
0.00666051
0.00588737
0.00506394
0.00417034
0.00326564
0.00231668
0.00138543
0.000420624
-0.0890238
-0.095456
-0.0979622
-0.0988117
-0.0992671
-0.0996768
-0.100056
-0.100376
-0.100654
-0.100895
-0.101103
-0.101281
-0.101433
-0.101564
-0.101674
-0.101764
-0.101829
-0.101867
-0.101871
-0.101838
-0.101764
-0.101647
-0.101486
-0.101279
-0.101027
-0.10073
-0.100387
-0.0999986
-0.099562
-0.0990757
-0.098538
-0.0979474
-0.0973018
-0.0965982
-0.0958342
-0.0950067
-0.0941124
-0.0931472
-0.0921063
-0.0909844
-0.0897751
-0.0884713
-0.087065
-0.0855475
-0.0839092
-0.0821398
-0.0802287
-0.0781654
-0.0759392
-0.0735401
-0.070958
-0.0681851
-0.0652154
-0.0620471
-0.0586828
-0.0551319
-0.05141
-0.0475409
-0.0435545
-0.0394889
-0.0353856
-0.0312933
-0.0272611
-0.0233429
-0.0195861
-0.0160397
-0.0127397
-0.00972246
-0.00700528
-0.00460667
-0.00252333
-0.00075945
0.000703453
0.0018689
0.00276768
0.00340885
0.00383443
0.00405407
0.00411707
0.00402747
0.00383946
0.00354645
0.00320733
0.00280005
0.00238933
0.00193209
0.00150144
0.00102815
0.000599573
0.000114913
-0.0831901
-0.0909572
-0.0949323
-0.096354
-0.096791
-0.0971352
-0.0976433
-0.0982715
-0.0989066
-0.0994754
-0.0999529
-0.100346
-0.100674
-0.10095
-0.101182
-0.101372
-0.101515
-0.101605
-0.101637
-0.101607
-0.10151
-0.101346
-0.101114
-0.100814
-0.100447
-0.100015
-0.0995202
-0.0989624
-0.0983424
-0.0976603
-0.0969158
-0.0961084
-0.0952368
-0.0942997
-0.0932951
-0.0922211
-0.091075
-0.0898536
-0.0885531
-0.0871695
-0.0856978
-0.084133
-0.0824696
-0.0807018
-0.0788238
-0.0768296
-0.0747137
-0.0724707
-0.0700957
-0.0675846
-0.064934
-0.0621422
-0.0592092
-0.0561387
-0.0529378
-0.0496181
-0.0461961
-0.0426942
-0.0391398
-0.0355659
-0.0320089
-0.0285086
-0.0251037
-0.0218334
-0.0187326
-0.0158346
-0.0131638
-0.0107424
-0.00858051
-0.00668691
-0.00505545
-0.0036813
-0.00254358
-0.00163179
-0.000917564
-0.000388613
-8.41004e-06
0.000234371
0.000382393
0.000439146
0.000450857
0.000406554
0.000358321
0.000275469
0.000221836
0.000137027
0.000103757
1.55199e-05
-1.01524e-05
-0.0001407
-0.07305
-0.0802203
-0.0855635
-0.089067
-0.0912311
-0.092709
-0.0939484
-0.0951294
-0.0962654
-0.097311
-0.0982282
-0.0990064
-0.099656
-0.100194
-0.100635
-0.100986
-0.101247
-0.101418
-0.101493
-0.101471
-0.10135
-0.101132
-0.100817
-0.100408
-0.0999103
-0.0993264
-0.0986604
-0.0979158
-0.0970957
-0.0962023
-0.0952374
-0.0942022
-0.0930972
-0.091922
-0.0906759
-0.0893575
-0.087965
-0.0864961
-0.084948
-0.0833178
-0.0816023
-0.0797984
-0.0779029
-0.0759129
-0.0738256
-0.0716392
-0.0693519
-0.0669632
-0.064473
-0.0618823
-0.0591933
-0.0564095
-0.0535362
-0.0505806
-0.0475517
-0.0444616
-0.041326
-0.038165
-0.0350034
-0.0318707
-0.0287995
-0.0258236
-0.0229748
-0.0202812
-0.0177646
-0.0154423
-0.0133257
-0.0114242
-0.0097426
-0.00828382
-0.00704019
-0.00599867
-0.0051344
-0.00442726
-0.00385118
-0.0033908
-0.00301975
-0.0027248
-0.00247542
-0.00226498
-0.00206306
-0.00187818
-0.00167699
-0.00148695
-0.00126089
-0.00105733
-0.000801959
-0.000612935
-0.000357632
-0.000264397
-0.0679043
-0.0745337
-0.0800184
-0.0842556
-0.0873688
-0.0896668
-0.0914896
-0.0930757
-0.0945329
-0.0958791
-0.0970942
-0.0981575
-0.0990625
-0.0998151
-0.100426
-0.100904
-0.101253
-0.101474
-0.101566
-0.101529
-0.101362
-0.101068
-0.100651
-0.100118
-0.0994734
-0.0987246
-0.0978778
-0.0969388
-0.0959131
-0.0948051
-0.0936187
-0.0923567
-0.091021
-0.0896125
-0.088131
-0.0865759
-0.0849461
-0.0832398
-0.0814554
-0.0795911
-0.0776453
-0.0756167
-0.0735045
-0.0713082
-0.0690283
-0.0666662
-0.0642241
-0.0617055
-0.0591151
-0.0564589
-0.053744
-0.0509788
-0.0481723
-0.0453342
-0.0424748
-0.0396056
-0.0367404
-0.0338963
-0.0310944
-0.0283608
-0.0257254
-0.0232195
-0.0208711
-0.0186998
-0.0167136
-0.0149101
-0.0132819
-0.0118243
-0.0105372
-0.00942254
-0.00847443
-0.00767604
-0.00699864
-0.00641306
-0.00589423
-0.00542983
-0.00500816
-0.0046222
-0.00425591
-0.0039019
-0.00354372
-0.0031829
-0.00280479
-0.00242434
-0.00202157
-0.00163317
-0.00121853
-0.00086669
-0.000474469
-0.000273253
-0.0634626
-0.069753
-0.0752376
-0.0798227
-0.0835166
-0.0864528
-0.0888403
-0.0908778
-0.0926973
-0.0943573
-0.0958655
-0.0972084
-0.0983729
-0.099354
-0.100155
-0.10078
-0.101235
-0.101522
-0.101643
-0.101599
-0.101392
-0.101027
-0.100513
-0.0998568
-0.0990688
-0.0981582
-0.097134
-0.0960044
-0.0947769
-0.0934585
-0.0920552
-0.0905721
-0.0890123
-0.0873779
-0.0856696
-0.0838875
-0.0820309
-0.0800989
-0.0780906
-0.0760056
-0.0738436
-0.0716053
-0.0692919
-0.066906
-0.0644507
-0.0619308
-0.0593519
-0.0567217
-0.0540492
-0.0513454
-0.0486228
-0.0458943
-0.0431727
-0.0404698
-0.0377962
-0.0351623
-0.0325787
-0.0300575
-0.0276124
-0.025262
-0.0230315
-0.0209503
-0.0190446
-0.0173289
-0.0157987
-0.0144301
-0.0131933
-0.0120691
-0.011055
-0.0101557
-0.00937121
-0.00869167
-0.00809111
-0.00753616
-0.00700095
-0.00647645
-0.00596252
-0.0054652
-0.00498662
-0.00452777
-0.00408139
-0.0036442
-0.00320481
-0.00276377
-0.00231041
-0.00185821
-0.00139494
-0.000967334
-0.000534043
-0.000263273
-0.0599463
-0.0660436
-0.071521
-0.0763018
-0.0803633
-0.0837597
-0.086612
-0.0890649
-0.0912383
-0.0932035
-0.0949865
-0.0965849
-0.0979863
-0.0991799
-0.100161
-0.100929
-0.101486
-0.101835
-0.101977
-0.101916
-0.101657
-0.101209
-0.100582
-0.0997898
-0.0988463
-0.0977645
-0.0965556
-0.09523
-0.0937975
-0.0922673
-0.0906473
-0.0889443
-0.0871633
-0.0853077
-0.0833793
-0.081379
-0.0793069
-0.0771627
-0.0749467
-0.0726593
-0.0703019
-0.0678769
-0.0653883
-0.0628412
-0.0602421
-0.057599
-0.054921
-0.0522187
-0.0495048
-0.0467949
-0.0441065
-0.0414573
-0.0388627
-0.0363346
-0.0338821
-0.0315122
-0.0292306
-0.0270423
-0.0249515
-0.0229628
-0.0210922
-0.019364
-0.0178007
-0.0164154
-0.0152013
-0.0141227
-0.0131371
-0.0122156
-0.0113514
-0.0105468
-0.0097986
-0.00911421
-0.0084922
-0.0079146
-0.00736225
-0.00683065
-0.00631081
-0.00579692
-0.00528887
-0.00478825
-0.00429419
-0.00380655
-0.003323
-0.00284433
-0.00236657
-0.00189353
-0.00142191
-0.000974166
-0.00054298
-0.000254303
-0.0571298
-0.0631346
-0.0686164
-0.0735099
-0.0777946
-0.0815031
-0.0847122
-0.0875205
-0.0900205
-0.092278
-0.0943252
-0.0961671
-0.0977939
-0.0991917
-0.100349
-0.10126
-0.101921
-0.102332
-0.102496
-0.102416
-0.102101
-0.101561
-0.100814
-0.0998767
-0.0987711
-0.097514
-0.0961194
-0.0946001
-0.0929679
-0.0912338
-0.0894079
-0.0874989
-0.0855133
-0.0834562
-0.0813307
-0.0791385
-0.0768809
-0.0745587
-0.072173
-0.0697255
-0.0672192
-0.0646583
-0.0620489
-0.0593992
-0.0567191
-0.0540202
-0.0513143
-0.0486135
-0.0459316
-0.0432867
-0.0406995
-0.0381886
-0.0357677
-0.0334458
-0.0312272
-0.0291128
-0.027102
-0.0251948
-0.0233918
-0.0216949
-0.0201083
-0.018642
-0.0173082
-0.0161069
-0.0150236
-0.0140414
-0.0131422
-0.0123068
-0.0115252
-0.0107984
-0.0101202
-0.00946574
-0.00881658
-0.0081687
-0.00753296
-0.00691799
-0.00633238
-0.00577865
-0.00525683
-0.00476012
-0.00427919
-0.00380695
-0.00333754
-0.00286883
-0.00239871
-0.00192899
-0.00146227
-0.00101121
-0.000592298
-0.000250529
-0.0548195
-0.0608114
-0.0663092
-0.0712689
-0.0756909
-0.0796123
-0.0830934
-0.0862015
-0.0890001
-0.0915389
-0.0938462
-0.0959288
-0.0977781
-0.099378
-0.100712
-0.101766
-0.102533
-0.103009
-0.103195
-0.103097
-0.102724
-0.102092
-0.101222
-0.100139
-0.0988713
-0.0974418
-0.0958694
-0.094171
-0.0923621
-0.0904558
-0.0884638
-0.0863955
-0.084258
-0.0820567
-0.0797951
-0.0774757
-0.0751001
-0.07267
-0.0701872
-0.0676546
-0.0650758
-0.0624565
-0.0598039
-0.0571277
-0.0544399
-0.0517547
-0.0490864
-0.0464466
-0.0438521
-0.041324
-0.0388805
-0.0365339
-0.0342903
-0.0321506
-0.0301123
-0.0281711
-0.0263221
-0.0245659
-0.0229123
-0.0213777
-0.0199751
-0.0187063
-0.0175619
-0.0165168
-0.0155128
-0.0145159
-0.0135237
-0.0125561
-0.0116502
-0.0108234
-0.0100728
-0.00939151
-0.00875425
-0.0081408
-0.00754206
-0.00695764
-0.00638992
-0.00584506
-0.00532193
-0.00481612
-0.00432311
-0.00383925
-0.00336184
-0.00288945
-0.00242114
-0.0019571
-0.00149926
-0.00105735
-0.000646893
-0.000255292
-0.0533535
-0.0593204
-0.064794
-0.0697662
-0.0742618
-0.078322
-0.0819954
-0.0853295
-0.0883666
-0.0911406
-0.0936716
-0.0959637
-0.0980072
-0.0997835
-0.101272
-0.102452
-0.103311
-0.103839
-0.104037
-0.10391
-0.103476
-0.102755
-0.101775
-0.100561
-0.0991432
-0.0975508
-0.0958134
-0.0939567
-0.0920014
-0.0899643
-0.0878578
-0.0856912
-0.0834709
-0.0812009
-0.0788836
-0.0765206
-0.0741126
-0.0716607
-0.0691661
-0.0666312
-0.0640593
-0.0614555
-0.0588267
-0.0561821
-0.0535333
-0.0508946
-0.0482834
-0.0457217
-0.0432315
-0.0408314
-0.0385358
-0.0363525
-0.0342812
-0.0323119
-0.0304275
-0.0286093
-0.0268421
-0.0251124
-0.0234253
-0.0218031
-0.0202755
-0.018871
-0.0176027
-0.0164527
-0.0153989
-0.0144121
-0.0134754
-0.0125812
-0.0117325
-0.0109378
-0.0102013
-0.0095114
-0.00885345
-0.0082175
-0.00760068
-0.00700447
-0.00643104
-0.00588065
-0.0053515
-0.00484036
-0.00434309
-0.00385601
-0.00337657
-0.00290377
-0.00243778
-0.00197949
-0.00153061
-0.00109667
-0.000684195
-0.000262824
-0.0524759
-0.0584659
-0.0639461
-0.0689432
-0.0734971
-0.077651
-0.081448
-0.0849316
-0.0881371
-0.091086
-0.0937859
-0.0962323
-0.0984113
-0.100303
-0.101887
-0.103143
-0.104055
-0.104617
-0.104828
-0.104698
-0.104245
-0.103494
-0.102474
-0.101218
-0.0997591
-0.0981283
-0.0963551
-0.094465
-0.0924797
-0.0904166
-0.0882889
-0.0861061
-0.0838746
-0.0815987
-0.0792806
-0.0769215
-0.0745222
-0.0720832
-0.0696054
-0.0670904
-0.0645411
-0.0619616
-0.0593578
-0.0567376
-0.0541112
-0.0514911
-0.0488921
-0.0463307
-0.0438243
-0.0413894
-0.0390401
-0.0367863
-0.0346323
-0.0325761
-0.0306121
-0.0287309
-0.0269127
-0.025158
-0.0234752
-0.0218818
-0.0203965
-0.0190313
-0.0177894
-0.0166535
-0.0155923
-0.0145802
-0.0136077
-0.0126787
-0.0118048
-0.0109931
-0.010242
-0.00954153
-0.00887728
-0.00823897
-0.00762241
-0.00702741
-0.00645496
-0.00590509
-0.00537554
-0.00486267
-0.00436268
-0.0038725
-0.00339032
-0.00291578
-0.0024499
-0.00199461
-0.00155173
-0.0011228
-0.000705936
-0.000271972
)
;

boundaryField
{
    fixedWalls
    {
        type            zeroGradient;
    }
    inflowWall
    {
        type            zeroGradient;
    }
    outflowWall
    {
        type            fixedValue;
        value           uniform 0;
    }
    frontAndBack
    {
        type            empty;
    }
}


// ************************************************************************* //
