/*--------------------------------*- C++ -*----------------------------------*\
| =========                 |                                                 |
| \\      /  F ield         | OpenFOAM: The Open Source CFD Toolbox           |
|  \\    /   O peration     | Version:  2306                                  |
|   \\  /    A nd           | Website:  www.openfoam.com                      |
|    \\/     M anipulation  |                                                 |
\*---------------------------------------------------------------------------*/
FoamFile
{
    version     2.0;
    format      ascii;
    arch        "LSB;label=32;scalar=64";
    class       volScalarField;
    location    "0.92";
    object      p;
}
// * * * * * * * * * * * * * * * * * * * * * * * * * * * * * * * * * * * * * //

dimensions      [0 2 -2 0 0 0 0];

internalField   nonuniform List<scalar> 
47500
(
14.2635
8.31615
5.39825
4.195
3.55686
3.16764
2.91729
2.74428
2.61604
2.51596
2.43483
2.36708
2.30908
2.2584
2.21331
2.17255
2.13519
2.1005
2.06793
2.03705
2.00751
1.97903
1.95138
1.92437
1.89784
1.87167
1.84576
1.82
1.79432
1.76866
1.74296
1.71718
1.69127
1.66522
1.639
1.61261
1.58605
1.55935
1.53256
1.50579
1.47918
1.45298
1.4276
1.40363
1.38186
1.36299
1.34744
1.33358
1.2884
1.04327
9.49509
7.11981
5.49163
4.53465
3.8969
3.45611
3.14913
2.9282
2.76268
2.63422
2.53141
2.44687
2.37567
2.31443
2.26077
2.21296
2.16973
2.1301
2.09334
2.05887
2.02623
1.99505
1.96504
1.93595
1.90758
1.87976
1.85236
1.82526
1.79834
1.77154
1.74476
1.71796
1.69106
1.66403
1.63682
1.60939
1.58172
1.55379
1.52557
1.49707
1.46825
1.43911
1.40957
1.37941
1.34802
1.31384
1.27371
1.22199
1.13976
0.970453
6.67604
5.93526
5.12719
4.46305
3.9445
3.54965
3.25202
3.0253
2.84921
2.70953
2.59634
2.5027
2.42369
2.35581
2.29649
2.24385
2.19648
2.15329
2.11345
2.0763
2.0413
2.00806
1.97621
1.94549
1.91567
1.88654
1.85795
1.82975
1.80184
1.7741
1.74644
1.71879
1.69107
1.66321
1.63516
1.60685
1.57822
1.54922
1.51976
1.48974
1.45904
1.42746
1.39464
1.36
1.32249
1.28017
1.22987
1.16695
1.08269
0.962343
5.23429
5.05262
4.6495
4.21692
3.83682
3.52089
3.2639
3.05618
2.88762
2.74953
2.63499
2.53865
2.45643
2.38526
2.3228
2.26724
2.2172
2.1716
2.12958
2.09047
2.05373
2.01891
1.98564
1.95364
1.92265
1.89246
1.8629
1.83381
1.80506
1.77654
1.74814
1.71977
1.69135
1.66279
1.63402
1.60495
1.57551
1.54559
1.51509
1.48385
1.45167
1.41828
1.38325
1.34596
1.30543
1.26022
1.20829
1.14712
1.07327
0.983889
4.39924
4.41396
4.22387
3.95435
3.68729
3.44489
3.23305
3.0519
2.89833
2.76815
2.65725
2.56204
2.47954
2.40729
2.34335
2.28614
2.23441
2.18716
2.14357
2.10298
2.06486
2.02876
1.99432
1.96124
1.92925
1.89814
1.86773
1.83784
1.80835
1.77912
1.75005
1.72104
1.69198
1.66279
1.63338
1.60365
1.57349
1.5428
1.51144
1.47923
1.44596
1.41133
1.37494
1.33626
1.29457
1.24893
1.19829
1.14171
1.07851
1.00975
3.87567
3.95337
3.87488
3.71211
3.52864
3.34701
3.17724
3.02414
2.88871
2.7699
2.66586
2.57454
2.49399
2.42248
2.3585
2.30078
2.24826
2.20007
2.15547
2.11386
2.07473
2.03766
2.00229
1.96832
1.93551
1.90362
1.87248
1.84191
1.81176
1.78192
1.75227
1.72269
1.69308
1.66335
1.63339
1.6031
1.57238
1.54109
1.5091
1.47623
1.44228
1.40697
1.37
1.33096
1.28939
1.24481
1.19682
1.14538
1.09106
1.03587
3.53077
3.61951
3.59618
3.49994
3.37559
3.24159
3.1081
2.98149
2.86479
2.7589
2.66355
2.57792
2.50097
2.43158
2.36874
2.31147
2.25896
2.21048
2.1654
2.12319
2.08341
2.04565
2.0096
1.97496
1.94149
1.90897
1.87722
1.84607
1.81538
1.78502
1.75487
1.72481
1.69475
1.66457
1.63418
1.60347
1.57233
1.54065
1.50827
1.47505
1.44081
1.40534
1.36841
1.32977
1.2892
1.24652
1.20175
1.15529
1.10808
1.06204
3.29066
3.37291
3.37569
3.32011
3.23645
3.13838
3.03455
2.93122
2.83217
2.73931
2.65337
2.57441
2.50206
2.43577
2.37492
2.31886
2.267
2.21876
2.17365
2.13123
2.09111
2.05293
2.01641
1.98127
1.9473
1.91428
1.88205
1.85043
1.81929
1.7885
1.75794
1.7275
1.69707
1.66655
1.63585
1.60485
1.57346
1.54155
1.50902
1.47572
1.44153
1.4063
1.36988
1.33216
1.29306
1.25265
1.21115
1.16911
1.12751
1.08789
3.11481
3.18637
3.20094
3.17005
3.11405
3.04247
2.96209
2.87837
2.79508
2.71451
2.63794
2.56597
2.49876
2.43616
2.3779
2.3236
2.27287
2.22531
2.18054
2.13822
2.09802
2.05965
2.02285
1.98739
1.95306
1.91967
1.88706
1.85507
1.82357
1.79244
1.76156
1.73082
1.70012
1.66936
1.63845
1.60729
1.57579
1.54384
1.51135
1.47821
1.44434
1.40964
1.37404
1.33753
1.30015
1.26206
1.2236
1.18535
1.14817
1.11322
2.98095
3.04206
3.0614
3.04549
3.00817
2.95592
2.89375
2.82613
2.75643
2.68698
2.61928
2.55424
2.49233
2.43373
2.37841
2.32625
2.27701
2.23046
2.18634
2.14438
2.10433
2.06596
2.02906
1.99341
1.95885
1.9252
1.89231
1.86004
1.82827
1.79688
1.76576
1.7348
1.70392
1.67302
1.64201
1.6108
1.57932
1.54747
1.51519
1.4824
1.44904
1.41507
1.38049
1.34534
1.30973
1.27388
1.23816
1.20309
1.16941
1.13797
2.87613
2.92825
2.94893
2.94209
2.91742
2.8792
2.83103
2.77641
2.7182
2.65854
2.59896
2.5405
2.48382
2.4293
2.37712
2.32732
2.27983
2.23453
2.19127
2.14988
2.11017
2.07197
2.03511
1.99941
1.96473
1.93092
1.89785
1.86539
1.83342
1.80185
1.77056
1.73947
1.70848
1.67752
1.6465
1.61535
1.584
1.55238
1.52043
1.48812
1.45542
1.42231
1.38884
1.35509
1.32121
1.28744
1.25412
1.22173
1.19084
1.16211
2.79235
2.83704
2.85745
2.85611
2.84002
2.81198
2.77452
2.7303
2.68166
2.63046
2.57813
2.52575
2.47406
2.42356
2.37456
2.32724
2.28164
2.23776
2.19554
2.15488
2.11566
2.07777
2.04107
2.00543
1.97073
1.93686
1.90368
1.8711
1.83902
1.80733
1.77595
1.74479
1.71378
1.68283
1.65188
1.62087
1.58974
1.55844
1.52693
1.49519
1.46322
1.43105
1.39872
1.36634
1.3341
1.3022
1.27098
1.24083
1.21221
1.18562
2.7244
2.76303
2.78244
2.78441
2.77418
2.75356
2.72427
2.68832
2.64757
2.60358
2.55764
2.51076
2.46371
2.41705
2.37118
2.32636
2.28273
2.24037
2.1993
2.15949
2.12088
2.0834
2.04697
2.01148
1.97686
1.94299
1.90979
1.87717
1.84503
1.8133
1.78189
1.75072
1.71974
1.68888
1.65807
1.62727
1.59643
1.56552
1.53451
1.50341
1.47222
1.44099
1.40978
1.37873
1.34799
1.31778
1.28837
1.2601
1.23334
1.20845
2.66872
2.70241
2.72056
2.72449
2.71828
2.70308
2.68004
2.65065
2.61636
2.57846
2.53806
2.49608
2.45328
2.41022
2.36734
2.32497
2.28332
2.24252
2.20267
2.16379
2.12587
2.08889
2.05281
2.01757
1.98309
1.9493
1.91615
1.88354
1.8514
1.81968
1.7883
1.75719
1.7263
1.69557
1.66496
1.63443
1.60394
1.57346
1.543
1.51256
1.48216
1.45186
1.42174
1.39192
1.36255
1.33383
1.30599
1.27931
1.25408
1.23059
2.6228
2.65246
2.66929
2.67436
2.67092
2.6597
2.64145
2.61725
2.58823
2.55543
2.51979
2.48213
2.44314
2.40338
2.36332
2.3233
2.28358
2.24435
2.20574
2.16783
2.13067
2.09426
2.05859
2.02364
1.98937
1.95573
1.92267
1.89014
1.85807
1.8264
1.7951
1.76409
1.73334
1.70281
1.67244
1.64221
1.6121
1.5821
1.5522
1.52243
1.49282
1.46342
1.43433
1.40564
1.37751
1.3501
1.32362
1.29829
1.27433
1.25199
2.58481
2.61115
2.62673
2.63242
2.63091
2.62262
2.60804
2.58796
2.56322
2.53467
2.50308
2.46917
2.43357
2.39681
2.35934
2.32152
2.28365
2.24595
2.20858
2.17166
2.13527
2.09947
2.06426
2.02966
1.99565
1.96221
1.9293
1.89688
1.86492
1.83337
1.80219
1.77133
1.74076
1.71045
1.68036
1.65047
1.62077
1.59126
1.56194
1.53283
1.50398
1.47545
1.4473
1.41966
1.39263
1.36638
1.34108
1.31689
1.29401
1.27262
2.55337
2.577
2.59143
2.59743
2.59725
2.59115
2.57939
2.56256
2.54129
2.51625
2.48809
2.45741
2.42478
2.39069
2.35557
2.31979
2.28365
2.2474
2.21123
2.17529
2.13969
2.10451
2.0698
2.03558
2.00187
1.96866
1.93594
1.90369
1.87188
1.84048
1.80946
1.77879
1.74843
1.71838
1.68859
1.65907
1.6298
1.60078
1.57203
1.54357
1.51545
1.48772
1.46046
1.43376
1.40773
1.3825
1.35821
1.33501
1.31304
1.29244
2.52746
2.54887
2.56228
2.56839
2.56915
2.56466
2.55508
2.54081
2.52234
2.5002
2.4749
2.44698
2.41691
2.38517
2.35215
2.31821
2.28366
2.24876
2.21373
2.17873
2.14391
2.10935
2.07514
2.04133
2.00795
1.975
1.94251
1.91046
1.87883
1.84762
1.81679
1.78633
1.75623
1.72645
1.697
1.66785
1.63902
1.6105
1.58231
1.55448
1.52705
1.50008
1.47363
1.44779
1.42264
1.39831
1.37491
1.35255
1.33135
1.31143
2.50629
2.52587
2.53842
2.54453
2.54592
2.54264
2.53474
2.52249
2.50626
2.48648
2.46355
2.43794
2.41007
2.38035
2.34917
2.31687
2.28375
2.25009
2.21611
2.182
2.14791
2.11396
2.08025
2.04685
2.01381
1.98116
1.94891
1.91708
1.88567
1.85467
1.82407
1.79386
1.76403
1.73456
1.70544
1.67669
1.64829
1.62026
1.59262
1.56539
1.53862
1.51235
1.48665
1.46158
1.43723
1.41369
1.39106
1.36943
1.3489
1.32955
2.48925
2.50736
2.51916
2.52521
2.52705
2.52467
2.51804
2.50737
2.49292
2.47503
2.45405
2.43035
2.40432
2.37632
2.34671
2.31583
2.28398
2.25142
2.21838
2.18508
2.15168
2.11831
2.08508
2.05209
2.01939
1.98704
1.95506
1.92348
1.89231
1.86155
1.8312
1.80125
1.77171
1.74256
1.7138
1.68544
1.65748
1.62994
1.60283
1.57618
1.55002
1.5244
1.49938
1.47502
1.45138
1.42854
1.40658
1.38559
1.36563
1.34677
2.47586
2.4928
2.50399
2.50996
2.5121
2.51038
2.50472
2.49526
2.4822
2.46582
2.44639
2.42423
2.3997
2.37312
2.34484
2.31516
2.28438
2.25277
2.22057
2.18799
2.1552
2.12236
2.08959
2.05699
2.02463
1.99259
1.96089
1.92957
1.89865
1.86815
1.83807
1.8084
1.77916
1.75035
1.72196
1.694
1.66648
1.63941
1.61281
1.5867
1.56112
1.53611
1.51172
1.48799
1.46499
1.44277
1.42141
1.40097
1.3815
1.36306
2.46577
2.4818
2.49251
2.49839
2.50074
2.49949
2.49454
2.48599
2.474
2.45876
2.44053
2.41959
2.39625
2.37081
2.34359
2.31489
2.28499
2.25418
2.22268
2.19072
2.15847
2.1261
2.09374
2.06151
2.02948
1.99773
1.96631
1.93527
1.90462
1.87439
1.84458
1.81522
1.7863
1.75783
1.72981
1.70225
1.67516
1.64855
1.62244
1.59686
1.57183
1.54738
1.52356
1.50041
1.47798
1.45632
1.43549
1.41553
1.39649
1.37842
2.45871
2.47408
2.48442
2.49022
2.4927
2.49178
2.48734
2.47944
2.46821
2.45381
2.43647
2.41643
2.39398
2.36939
2.34299
2.31504
2.28584
2.25566
2.22473
2.19327
2.16147
2.12951
2.09751
2.06561
2.03389
2.00243
1.97128
1.94051
1.91014
1.88019
1.85068
1.82162
1.79303
1.76491
1.73727
1.71011
1.68344
1.65729
1.63165
1.60656
1.58204
1.55812
1.53483
1.51221
1.49029
1.46913
1.44877
1.42924
1.41057
1.39281
2.45449
2.46941
2.47951
2.48525
2.48781
2.48709
2.48297
2.4755
2.46476
2.45093
2.43417
2.41474
2.39289
2.3689
2.34306
2.31565
2.28695
2.25722
2.22671
2.19564
2.1642
2.13256
2.10088
2.06926
2.03782
2.00662
1.97575
1.94525
1.91515
1.88549
1.85628
1.82755
1.79929
1.77153
1.74426
1.7175
1.69125
1.66553
1.64035
1.61573
1.59169
1.56826
1.54546
1.52332
1.50188
1.48116
1.46121
1.44206
1.42372
1.40624
2.45298
2.46768
2.47765
2.48335
2.48594
2.48532
2.48136
2.4741
2.46362
2.45007
2.43363
2.41452
2.393
2.36934
2.34381
2.31671
2.28831
2.25887
2.22864
2.19783
2.16665
2.13526
2.10381
2.07244
2.04124
2.0103
1.97968
1.94944
1.91963
1.89025
1.86135
1.83294
1.80502
1.77762
1.75072
1.72435
1.69852
1.67322
1.64848
1.62431
1.60072
1.57774
1.5554
1.5337
1.51268
1.49237
1.4728
1.45398
1.43593
1.41869
2.45413
2.4688
2.47875
2.48444
2.48703
2.48641
2.48246
2.47521
2.46475
2.45123
2.43483
2.41577
2.3943
2.37071
2.34526
2.31825
2.28995
2.26062
2.23051
2.19984
2.1688
2.13758
2.10631
2.07513
2.04414
2.01343
1.98305
1.95307
1.92352
1.89444
1.86585
1.83776
1.81018
1.78313
1.75661
1.73063
1.7052
1.68031
1.65599
1.63225
1.60909
1.58654
1.56461
1.54332
1.52269
1.50275
1.4835
1.46498
1.4472
1.43016
2.45792
2.47277
2.48282
2.48852
2.49107
2.49035
2.48626
2.47882
2.46815
2.4544
2.43777
2.41848
2.3968
2.37301
2.3474
2.32025
2.29185
2.26246
2.23232
2.20166
2.17067
2.13953
2.10837
2.07733
2.04651
2.01599
1.98584
1.9561
1.92682
1.89803
1.86974
1.84198
1.81475
1.78805
1.7619
1.7363
1.71126
1.68678
1.66286
1.63952
1.61677
1.59461
1.57307
1.55216
1.53188
1.51227
1.49332
1.47507
1.45751
1.44066
2.46441
2.47965
2.48991
2.49566
2.49812
2.4972
2.4928
2.48497
2.47384
2.4596
2.44245
2.42265
2.40048
2.37623
2.35021
2.32271
2.29401
2.26438
2.23407
2.20329
2.17224
2.14109
2.10999
2.07904
2.04835
2.018
1.98805
1.95854
1.92952
1.90101
1.87303
1.84559
1.81869
1.79235
1.76657
1.74134
1.71668
1.69258
1.66905
1.6461
1.62373
1.60195
1.58076
1.56019
1.54024
1.52093
1.50226
1.48424
1.46688
1.45019
2.47371
2.48958
2.50017
2.50597
2.50829
2.50705
2.50216
2.49371
2.48187
2.46684
2.44889
2.42828
2.40534
2.38037
2.35369
2.32561
2.29641
2.26638
2.23574
2.20473
2.17352
2.14228
2.11115
2.08025
2.04965
2.01944
1.98968
1.96039
1.93162
1.90339
1.87571
1.84859
1.82203
1.79603
1.77061
1.74575
1.72145
1.69773
1.67457
1.65198
1.62996
1.60853
1.58768
1.56743
1.54778
1.52873
1.5103
1.4925
1.47532
1.45878
2.48602
2.50274
2.51378
2.51966
2.52177
2.52005
2.51446
2.50514
2.49229
2.47618
2.4571
2.43538
2.41137
2.3854
2.35781
2.32892
2.29904
2.26842
2.23732
2.20595
2.17449
2.14309
2.11188
2.08097
2.05043
2.02034
1.99074
1.96166
1.93314
1.90518
1.87779
1.85098
1.82475
1.7991
1.77402
1.74951
1.72558
1.70221
1.6794
1.65716
1.63548
1.61437
1.59383
1.57387
1.55449
1.53569
1.51748
1.49986
1.48285
1.46642
2.50158
2.51943
2.53105
2.53699
2.53879
2.53642
2.52989
2.51938
2.50519
2.48765
2.4671
2.44394
2.41854
2.39128
2.36253
2.33262
2.30185
2.27049
2.23879
2.20695
2.17514
2.14351
2.11217
2.08121
2.0507
2.02071
1.99125
1.96237
1.93408
1.90638
1.87928
1.85278
1.82688
1.80156
1.77682
1.75266
1.72906
1.70603
1.68356
1.66164
1.64028
1.61947
1.59922
1.57952
1.56038
1.54181
1.52379
1.50635
1.48947
1.47316
2.52075
2.54002
2.55235
2.55834
2.55969
2.55643
2.54864
2.5366
2.52068
2.50131
2.47891
2.45393
2.42682
2.39798
2.3678
2.33664
2.30479
2.27254
2.24012
2.20771
2.17547
2.14355
2.11202
2.08098
2.05048
2.02056
1.99124
1.96255
1.93448
1.90704
1.88022
1.85402
1.82843
1.80343
1.77902
1.75519
1.73192
1.70921
1.68705
1.66544
1.64437
1.62384
1.60385
1.5844
1.56548
1.54711
1.52927
1.51197
1.49522
1.479
2.54399
2.56503
2.57821
2.58418
2.58488
2.58043
2.57099
2.55697
2.53887
2.51721
2.49253
2.46534
2.43616
2.40542
2.37356
2.34092
2.30782
2.27453
2.24126
2.20819
2.17547
2.14319
2.11145
2.0803
2.04978
2.01992
1.99073
1.96221
1.93436
1.90717
1.88063
1.85472
1.82943
1.80475
1.78065
1.75713
1.73417
1.71177
1.68991
1.66858
1.64778
1.62751
1.60776
1.58853
1.56981
1.55162
1.53393
1.51677
1.50011
1.48397
2.57189
2.59512
2.60928
2.61512
2.61489
2.60884
2.59725
2.58071
2.55987
2.5354
2.50794
2.47811
2.44647
2.41352
2.3797
2.34538
2.31086
2.27639
2.24218
2.20838
2.1751
2.14244
2.11045
2.07917
2.04862
2.01881
1.98974
1.96139
1.93375
1.9068
1.88053
1.85491
1.82991
1.80553
1.78173
1.75851
1.73585
1.71373
1.69214
1.67108
1.65053
1.6305
1.61096
1.59193
1.57339
1.55535
1.53781
1.52075
1.50419
1.48811
2.60525
2.63114
2.64641
2.65195
2.65038
2.64217
2.62779
2.60805
2.5838
2.55589
2.5251
2.49214
2.45764
2.42215
2.38612
2.3499
2.3138
2.27805
2.24281
2.20822
2.17435
2.14128
2.10903
2.07761
2.04702
2.01726
1.9883
1.96012
1.93269
1.90598
1.87996
1.85461
1.8299
1.8058
1.78229
1.75936
1.73697
1.71512
1.69379
1.67297
1.65265
1.63282
1.61348
1.59463
1.57625
1.55835
1.54092
1.52396
1.50747
1.49145
2.64507
2.67422
2.69073
2.69563
2.69215
2.68102
2.66301
2.63921
2.61074
2.57866
2.5439
2.50729
2.46952
2.43115
2.39264
2.35435
2.31654
2.2794
2.24308
2.20765
2.17318
2.13969
2.10717
2.07561
2.04499
2.01528
1.98643
1.95842
1.93119
1.90471
1.87895
1.85387
1.82943
1.8056
1.78237
1.75969
1.73756
1.71596
1.69486
1.67427
1.65415
1.63452
1.61535
1.59665
1.57841
1.56063
1.5433
1.52642
1.50999
1.49401
2.6927
2.72585
2.74365
2.74741
2.74117
2.72609
2.70333
2.67439
2.64073
2.60362
2.56419
2.52335
2.48186
2.44029
2.39908
2.35854
2.31891
2.28033
2.24289
2.20662
2.17154
2.13763
2.10485
2.07317
2.04253
2.01287
1.98415
1.95631
1.92929
1.90304
1.87753
1.8527
1.82852
1.80496
1.78198
1.75955
1.73766
1.71628
1.6954
1.67501
1.65508
1.63561
1.6166
1.59804
1.57992
1.56223
1.54499
1.52817
1.51179
1.49584
2.74998
2.78803
2.80708
2.80887
2.79863
2.77815
2.74919
2.71376
2.67369
2.63057
2.58568
2.54002
2.49437
2.44928
2.40516
2.36226
2.32075
2.28069
2.24212
2.20503
2.16936
2.13506
2.10206
2.07027
2.03963
2.01006
1.98147
1.9538
1.92699
1.90098
1.87571
1.85113
1.8272
1.80388
1.78114
1.75895
1.73728
1.71612
1.69543
1.67521
1.65545
1.63614
1.61726
1.59881
1.58079
1.56319
1.54601
1.52925
1.5129
1.49696
2.8194
2.86348
2.88351
2.882
2.86591
2.83806
2.80097
2.75732
2.70943
2.65917
2.60795
2.55686
2.50663
2.45776
2.41057
2.36523
2.32181
2.2803
2.24065
2.20277
2.16657
2.13193
2.09874
2.0669
2.03629
2.00682
1.97839
1.95091
1.92432
1.89854
1.87351
1.84918
1.82549
1.80241
1.7799
1.75792
1.73646
1.71548
1.69497
1.67492
1.6553
1.63611
1.61735
1.599
1.58106
1.56353
1.5464
1.52968
1.51335
1.49742
2.9045
2.95598
2.97628
2.96928
2.94464
2.90664
2.85889
2.80489
2.7475
2.68882
2.6304
2.57327
2.51809
2.46525
2.41491
2.36713
2.32184
2.27894
2.23828
2.19971
2.16305
2.12815
2.09485
2.063
2.03247
2.00314
1.97489
1.94763
1.92127
1.89573
1.87095
1.84685
1.8234
1.80055
1.77825
1.75648
1.7352
1.7144
1.69405
1.67414
1.65465
1.63558
1.61691
1.59864
1.58077
1.56329
1.5462
1.5295
1.51318
1.49725
3.01049
3.07095
3.0899
3.07384
3.03659
2.9846
2.92289
2.85594
2.78709
2.71866
2.65215
2.58846
2.52807
2.47115
2.41768
2.36753
2.3205
2.27635
2.23483
2.19569
2.1587
2.12363
2.0903
2.05852
2.02813
1.99899
1.97096
1.94394
1.91783
1.89254
1.86801
1.84416
1.82094
1.79831
1.77622
1.75464
1.73353
1.71289
1.69269
1.6729
1.65353
1.63455
1.61597
1.59777
1.57995
1.5625
1.54544
1.52875
1.51243
1.49649
3.14535
3.21624
3.23044
3.19943
3.14352
3.07225
2.99237
2.90934
2.82692
2.74738
2.67201
2.60139
2.53567
2.47474
2.41829
2.36599
2.31743
2.27224
2.23005
2.19052
2.15335
2.11826
2.08502
2.0534
2.02322
1.99432
1.96656
1.93982
1.91399
1.88897
1.8647
1.8411
1.81812
1.7957
1.77381
1.75241
1.73147
1.71098
1.69091
1.67124
1.65196
1.63306
1.61455
1.5964
1.57862
1.5612
1.54415
1.52746
1.51113
1.49517
3.32201
3.4036
3.40602
3.35035
3.26683
3.16909
3.06578
2.96316
2.86497
2.77313
2.68836
2.6107
2.53981
2.47514
2.41606
2.36195
2.3122
2.26628
2.22369
2.18401
2.14686
2.11191
2.07888
2.04754
2.01767
1.9891
1.96166
1.93524
1.90972
1.885
1.86101
1.83767
1.81492
1.79272
1.77103
1.74981
1.72904
1.70868
1.68873
1.66916
1.64997
1.63114
1.61268
1.59457
1.57682
1.55941
1.54236
1.52566
1.50932
1.49333
3.56273
3.65084
3.62718
3.5309
3.4067
3.27305
3.14009
3.01416
2.89829
2.79337
2.69913
2.61476
2.53919
2.47135
2.4102
2.35481
2.30434
2.2581
2.21546
2.17592
2.13903
2.10443
2.07179
2.04086
2.01141
1.98325
1.95621
1.93017
1.905
1.88061
1.85692
1.83385
1.81136
1.78939
1.7679
1.74685
1.72623
1.70601
1.68616
1.66669
1.64758
1.62881
1.61039
1.59231
1.57457
1.55718
1.54012
1.5234
1.50703
1.491
3.90804
3.98516
3.90638
3.74359
3.5603
3.37901
3.20974
3.05728
2.92262
2.80471
2.7017
2.61154
2.5323
2.46224
2.39987
2.34392
2.29336
2.24732
2.20507
2.16602
2.1297
2.09568
2.06363
2.03327
2.00436
1.97671
1.95016
1.92456
1.89979
1.87578
1.85242
1.82965
1.80743
1.78569
1.7644
1.74354
1.72307
1.70298
1.68324
1.66385
1.64481
1.62609
1.60771
1.58965
1.57192
1.55451
1.53744
1.5207
1.50429
1.48822
4.43181
4.44603
4.2557
3.98618
3.71928
3.47719
3.26579
3.08521
2.93232
2.80294
2.69297
2.59883
2.51753
2.44664
2.3842
2.32867
2.2788
2.23359
2.19224
2.15411
2.11868
2.08552
2.05428
2.02467
1.99645
1.96944
1.94346
1.91838
1.89408
1.87048
1.84749
1.82505
1.80311
1.78163
1.76056
1.73988
1.71957
1.6996
1.67997
1.66067
1.64168
1.62301
1.60465
1.58661
1.56888
1.55146
1.53436
1.51758
1.50113
1.48501
5.26688
5.08479
4.68148
4.24889
3.86892
3.55323
3.2966
3.08933
2.92135
2.78396
2.67024
2.57485
2.49374
2.42381
2.36275
2.30877
2.26048
2.21681
2.17693
2.14016
2.10599
2.07397
2.04376
2.01509
1.98772
1.96145
1.93614
1.91166
1.88789
1.86475
1.84217
1.82009
1.79846
1.77724
1.7564
1.73592
1.71576
1.69593
1.6764
1.65718
1.63825
1.61962
1.60128
1.58324
1.5655
1.54806
1.53093
1.51411
1.49761
1.48143
6.70848
5.96738
5.15914
4.49496
3.97646
3.58175
3.28436
3.05799
2.88237
2.74327
2.63081
2.53802
2.46
2.39326
2.33524
2.28407
2.23834
2.19697
2.15914
2.12421
2.09165
2.06106
2.03213
2.00457
1.97819
1.95279
1.92825
1.90444
1.88126
1.85864
1.83651
1.81482
1.79352
1.77258
1.75198
1.73169
1.71171
1.692
1.67258
1.65344
1.63456
1.61596
1.59764
1.5796
1.56184
1.54437
1.5272
1.51033
1.49378
1.47754
9.52726
7.15174
5.52336
4.56624
3.92842
3.48765
3.18078
2.96008
2.79491
2.66692
2.56472
2.48093
2.41061
2.3504
2.29793
2.25147
2.20974
2.17181
2.13693
2.10453
2.07416
2.04548
2.0182
1.99208
1.96694
1.94264
1.91904
1.89605
1.87359
1.85158
1.82998
1.80875
1.78784
1.76723
1.7469
1.72684
1.70703
1.68748
1.66817
1.6491
1.63028
1.61171
1.5934
1.57535
1.55756
1.54005
1.52283
1.5059
1.48927
1.47296
14.2955
8.34781
5.4296
4.22604
3.58766
3.19831
2.94792
2.77501
2.64698
2.54725
2.46661
2.39947
2.34224
2.29246
2.24842
2.20887
2.17287
2.13971
2.10886
2.07987
2.05242
2.02623
2.00108
1.97681
1.95326
1.93033
1.90792
1.88596
1.86438
1.84313
1.82218
1.8015
1.78106
1.76084
1.74084
1.72105
1.70145
1.68206
1.66288
1.6439
1.62513
1.60659
1.58828
1.5702
1.55238
1.53481
1.51752
1.50051
1.48379
1.46738
1.01267
1.01221
1.01134
1.01027
1.00922
1.00832
1.00767
1.00733
1.00735
1.00776
1.00856
1.00976
1.01135
1.01332
1.01566
1.01835
1.02137
1.0247
1.02832
1.0322
1.03632
1.04066
1.04519
1.04989
1.05473
1.05969
1.06475
1.06989
1.07508
1.0803
1.08554
1.09078
1.09599
1.10116
1.10628
1.11133
1.11629
1.12116
1.12591
1.13054
1.13505
1.1394
1.14361
1.14766
1.15154
1.15525
1.15878
1.16213
1.16529
1.16826
1.17103
1.17361
1.17598
1.17816
1.18014
1.18192
1.1835
1.18488
1.18606
1.18704
1.18783
1.18843
1.18884
1.18906
1.1891
1.18896
1.18864
1.18815
1.18749
1.18667
1.18568
1.18455
1.18325
1.18182
1.18024
1.17852
1.17667
1.17469
1.17259
1.17037
1.16803
1.16558
1.16303
1.16038
1.15764
1.1548
1.15188
1.14887
1.14578
1.14262
1.13939
1.1361
1.13274
1.12932
1.12584
1.12232
1.11874
1.11513
1.11147
1.10777
1.10403
1.10027
1.09647
1.09265
1.0888
1.08493
1.08104
1.07713
1.0732
1.06927
1.06532
1.06136
1.0574
1.05343
1.04945
1.04548
1.0415
1.03752
1.03354
1.02957
1.02559
1.02163
1.01767
1.01371
1.00977
1.00583
1.0019
0.997985
0.994077
0.990181
0.986296
0.982423
0.978563
0.974716
0.970883
0.967063
0.963257
0.959466
0.955689
0.951927
0.94818
0.944447
0.94073
0.937029
0.933342
0.929671
0.926014
0.922374
0.918748
0.915138
0.911542
0.907962
0.904396
0.900846
0.89731
0.893789
0.890282
0.886789
0.88331
0.879845
0.876394
0.872957
0.869532
0.866121
0.862723
0.859338
0.855965
0.852604
0.849255
0.845918
0.842593
0.839279
0.835977
0.832685
0.829404
0.826133
0.822873
0.819622
0.816382
0.813151
0.809929
0.806716
0.803512
0.800317
0.79713
0.793951
0.790781
0.787618
0.784462
0.781314
0.778173
0.775039
0.771912
0.768791
0.765677
0.762569
0.759466
0.75637
0.753279
0.750193
0.747113
0.744038
0.740967
0.737902
0.734841
0.731784
0.728732
0.725683
0.722639
0.719598
0.716561
0.713528
0.710498
0.707471
0.704447
0.701426
0.698409
0.695394
0.692381
0.689371
0.686364
0.683359
0.680356
0.677355
0.674356
0.671359
0.668364
0.66537
0.662378
0.659388
0.656399
0.653411
0.650425
0.64744
0.644456
0.641474
0.638492
0.635511
0.632531
0.629552
0.626574
0.623596
0.620619
0.617643
0.614667
0.611692
0.608717
0.605743
0.602769
0.599795
0.596822
0.593849
0.590876
0.587903
0.584931
0.581958
0.578986
0.576013
0.573041
0.570069
0.567096
0.564124
0.561151
0.558179
0.555206
0.552234
0.549261
0.546288
0.543314
0.540341
0.537367
0.534393
0.531419
0.528445
0.52547
0.522495
0.51952
0.516545
0.513569
0.510593
0.507617
0.50464
0.501663
0.498686
0.495708
0.49273
0.489752
0.486773
0.483794
0.480815
0.477835
0.474855
0.471875
0.468894
0.465913
0.462931
0.45995
0.456967
0.453985
0.451002
0.448019
0.445035
0.442052
0.439067
0.436083
0.433098
0.430113
0.427127
0.424141
0.421155
0.418168
0.415181
0.412194
0.409207
0.406219
0.403231
0.400242
0.397253
0.394264
0.391275
0.388285
0.385295
0.382305
0.379315
0.376324
0.373333
0.370342
0.36735
0.364358
0.361366
0.358374
0.355381
0.352389
0.349395
0.346402
0.343409
0.340415
0.337421
0.334427
0.331433
0.328438
0.325443
0.322448
0.319453
0.316458
0.313462
0.310467
0.307471
0.304475
0.301479
0.298483
0.295486
0.29249
0.289493
0.286496
0.283499
0.280502
0.277504
0.274507
0.271509
0.268512
0.265514
0.262516
0.259518
0.256519
0.253521
0.250523
0.247524
0.244526
0.241527
0.238528
0.235529
0.23253
0.229531
0.226532
0.223533
0.220534
0.217534
0.214535
0.211535
0.208535
0.205536
0.202536
0.199536
0.196536
0.193536
0.190536
0.187536
0.184536
0.181536
0.178535
0.175535
0.172535
0.169534
0.166534
0.163533
0.160533
0.157532
0.154532
0.151531
0.148531
0.14553
0.142529
0.139529
0.136528
0.133527
0.130527
0.127526
0.124525
0.121525
0.118524
0.115523
0.112522
0.109522
0.106521
0.10352
0.100519
0.0975185
0.0945178
0.091517
0.0885163
0.0855155
0.0825148
0.079514
0.0765133
0.0735126
0.0705118
0.0675111
0.0645104
0.0615097
0.058509
0.0555083
0.0525077
0.049507
0.0465063
0.0435057
0.040505
0.0375044
0.0345037
0.0315031
0.0285025
0.025502
0.0225014
0.019501
0.0165005
0.0135001
0.0104997
0.00749935
0.00449908
0.00149932
1.01312
1.01267
1.01198
1.01118
1.01041
1.00977
1.00935
1.00919
1.00934
1.00983
1.01067
1.01187
1.01342
1.01532
1.01757
1.02013
1.02301
1.02618
1.02962
1.03331
1.03724
1.04137
1.04568
1.05016
1.05478
1.05952
1.06436
1.06928
1.07426
1.07927
1.08431
1.08935
1.09437
1.09936
1.1043
1.10918
1.11398
1.11869
1.12331
1.1278
1.13218
1.13642
1.14052
1.14447
1.14827
1.15189
1.15535
1.15864
1.16174
1.16466
1.16739
1.16993
1.17229
1.17445
1.17641
1.17819
1.17976
1.18115
1.18234
1.18334
1.18415
1.18478
1.18522
1.18547
1.18555
1.18545
1.18518
1.18473
1.18412
1.18335
1.18243
1.18134
1.18011
1.17874
1.17722
1.17556
1.17378
1.17187
1.16983
1.16768
1.16541
1.16303
1.16055
1.15797
1.15529
1.15253
1.14967
1.14673
1.14371
1.14062
1.13745
1.13422
1.13093
1.12757
1.12416
1.1207
1.11719
1.11363
1.11003
1.10639
1.10271
1.099
1.09526
1.09148
1.08769
1.08387
1.08003
1.07617
1.07229
1.0684
1.0645
1.06058
1.05666
1.05273
1.0488
1.04486
1.04091
1.03697
1.03303
1.02909
1.02515
1.02121
1.01728
1.01336
1.00944
1.00553
1.00163
0.997734
0.99385
0.989976
0.986113
0.982261
0.978421
0.974593
0.970778
0.966976
0.963187
0.959411
0.95565
0.951902
0.948168
0.944449
0.940744
0.937054
0.933379
0.929718
0.926071
0.92244
0.918823
0.91522
0.911633
0.908059
0.904501
0.900956
0.897426
0.89391
0.890408
0.886919
0.883445
0.879984
0.876536
0.873102
0.86968
0.866272
0.862876
0.859492
0.856121
0.852761
0.849414
0.846078
0.842753
0.83944
0.836137
0.832846
0.829565
0.826294
0.823033
0.819782
0.81654
0.813308
0.810086
0.806872
0.803667
0.80047
0.797282
0.794102
0.79093
0.787765
0.784608
0.781458
0.778315
0.775179
0.77205
0.768927
0.765811
0.762701
0.759596
0.756498
0.753405
0.750317
0.747234
0.744157
0.741084
0.738016
0.734953
0.731894
0.728839
0.725789
0.722742
0.719699
0.71666
0.713624
0.710592
0.707563
0.704537
0.701514
0.698494
0.695477
0.692463
0.689451
0.686441
0.683434
0.680429
0.677426
0.674425
0.671426
0.668429
0.665434
0.66244
0.659448
0.656457
0.653468
0.65048
0.647493
0.644508
0.641523
0.63854
0.635558
0.632576
0.629596
0.626616
0.623637
0.620659
0.617681
0.614704
0.611727
0.608751
0.605776
0.6028
0.599825
0.596851
0.593877
0.590903
0.587929
0.584955
0.581981
0.579008
0.576035
0.573061
0.570088
0.567115
0.564141
0.561168
0.558195
0.555221
0.552248
0.549274
0.5463
0.543326
0.540352
0.537378
0.534403
0.531429
0.528454
0.525478
0.522503
0.519527
0.516551
0.513575
0.510599
0.507622
0.504645
0.501667
0.498689
0.495711
0.492733
0.489754
0.486775
0.483796
0.480816
0.477836
0.474856
0.471875
0.468894
0.465913
0.462931
0.459949
0.456967
0.453984
0.451001
0.448017
0.445034
0.44205
0.439065
0.43608
0.433095
0.43011
0.427124
0.424138
0.421152
0.418165
0.415178
0.412191
0.409203
0.406215
0.403227
0.400238
0.397249
0.39426
0.391271
0.388281
0.385291
0.382301
0.379311
0.37632
0.373329
0.370337
0.367346
0.364354
0.361362
0.358369
0.355377
0.352384
0.349391
0.346398
0.343404
0.340411
0.337417
0.334422
0.331428
0.328434
0.325439
0.322444
0.319449
0.316454
0.313458
0.310463
0.307467
0.304471
0.301475
0.298479
0.295482
0.292486
0.289489
0.286492
0.283495
0.280498
0.277501
0.274503
0.271506
0.268508
0.26551
0.262512
0.259514
0.256516
0.253518
0.25052
0.247521
0.244523
0.241524
0.238525
0.235527
0.232528
0.229529
0.226529
0.22353
0.220531
0.217532
0.214532
0.211533
0.208533
0.205533
0.202534
0.199534
0.196534
0.193534
0.190534
0.187534
0.184534
0.181534
0.178534
0.175533
0.172533
0.169533
0.166533
0.163532
0.160532
0.157531
0.154531
0.15153
0.14853
0.145529
0.142528
0.139528
0.136527
0.133527
0.130526
0.127525
0.124525
0.121524
0.118523
0.115523
0.112522
0.109521
0.10652
0.10352
0.100519
0.0975182
0.0945174
0.0915167
0.088516
0.0855153
0.0825146
0.0795138
0.0765131
0.0735124
0.0705117
0.067511
0.0645103
0.0615097
0.058509
0.0555083
0.0525077
0.049507
0.0465064
0.0435057
0.0405051
0.0375045
0.0345038
0.0315033
0.0285027
0.0255022
0.0225016
0.0195012
0.0165007
0.0135003
0.0105
0.00749968
0.00449938
0.00149944
1.014
1.01336
1.01266
1.01197
1.01134
1.01084
1.01055
1.0105
1.01074
1.01129
1.01216
1.01335
1.01488
1.01673
1.0189
1.02138
1.02415
1.0272
1.0305
1.03405
1.03782
1.04179
1.04594
1.05025
1.0547
1.05927
1.06394
1.06868
1.07349
1.07834
1.08322
1.0881
1.09297
1.09781
1.10261
1.10735
1.11203
1.11662
1.12112
1.12551
1.12979
1.13394
1.13795
1.14182
1.14555
1.14911
1.15251
1.15574
1.1588
1.16168
1.16438
1.16689
1.16923
1.17137
1.17332
1.17509
1.17667
1.17806
1.17926
1.18027
1.1811
1.18174
1.18221
1.18249
1.1826
1.18253
1.18229
1.18189
1.18132
1.18059
1.17971
1.17867
1.17749
1.17616
1.1747
1.17309
1.17136
1.1695
1.16752
1.16542
1.16321
1.16089
1.15847
1.15594
1.15332
1.15061
1.14781
1.14492
1.14196
1.13892
1.13581
1.13263
1.12939
1.12609
1.12273
1.11932
1.11586
1.11235
1.1088
1.1052
1.10157
1.09791
1.09421
1.09049
1.08673
1.08295
1.07916
1.07534
1.0715
1.06765
1.06378
1.0599
1.05601
1.05212
1.04822
1.04431
1.0404
1.03649
1.03257
1.02866
1.02475
1.02084
1.01694
1.01304
1.00914
1.00525
1.00137
0.997501
0.993637
0.989783
0.985939
0.982105
0.978282
0.974471
0.970672
0.966885
0.96311
0.959348
0.9556
0.951865
0.948143
0.944435
0.940741
0.937061
0.933395
0.929743
0.926105
0.922482
0.918873
0.915278
0.911697
0.90813
0.904577
0.901038
0.897513
0.894002
0.890504
0.88702
0.883549
0.880092
0.876647
0.873216
0.869797
0.866391
0.862997
0.859615
0.856245
0.852888
0.849541
0.846206
0.842883
0.83957
0.836268
0.832977
0.829696
0.826425
0.823164
0.819912
0.816671
0.813438
0.810215
0.807
0.803794
0.800597
0.797408
0.794226
0.791053