/*--------------------------------*- C++ -*----------------------------------*\
| =========                 |                                                 |
| \\      /  F ield         | OpenFOAM: The Open Source CFD Toolbox           |
|  \\    /   O peration     | Version:  2306                                  |
|   \\  /    A nd           | Website:  www.openfoam.com                      |
|    \\/     M anipulation  |                                                 |
\*---------------------------------------------------------------------------*/
FoamFile
{
    version     2.0;
    format      ascii;
    arch        "LSB;label=32;scalar=64";
    class       volScalarField;
    location    "3.14";
    object      p;
}
// * * * * * * * * * * * * * * * * * * * * * * * * * * * * * * * * * * * * * //

dimensions      [0 2 -2 0 0 0 0];

internalField   nonuniform List<scalar> 
1900
(
0.058199
0.0339695
0.0135689
-0.00178552
-0.0128236
-0.0234078
-0.0338867
-0.0461052
-0.0587296
-0.0728802
0.0289391
0.0207381
0.00941431
-0.00215022
-0.0131925
-0.0234038
-0.0338696
-0.0444231
-0.0559683
-0.0670643
0.0198548
0.0153619
0.00784095
-0.00153539
-0.0116301
-0.0216226
-0.0314177
-0.0409884
-0.0504367
-0.0595497
0.0141628
0.0110882
0.00543532
-0.00221763
-0.0110754
-0.0203229
-0.0295224
-0.0384453
-0.0470484
-0.0552146
0.0119497
0.00941407
0.00467487
-0.00197377
-0.00995307
-0.0185569
-0.0272316
-0.0356536
-0.0436703
-0.0511913
0.012595
0.0101152
0.00550618
-0.00095614
-0.00869067
-0.0169886
-0.0252903
-0.0332773
-0.0408243
-0.0479014
0.0160611
0.0131169
0.00783958
0.000762343
-0.0072894
-0.0155645
-0.0235966
-0.0312074
-0.0383879
-0.0451718
0.022769
0.0184761
0.0115839
0.00312371
-0.00568388
-0.0140915
-0.0219027
-0.0292102
-0.0361625
-0.0428205
0.0329175
0.0248216
0.0143926
0.00394274
-0.00534848
-0.0134392
-0.0207808
-0.0277951
-0.0346444
-0.0412874
0.061771
0.0391026
0.0194039
0.00535385
-0.00428592
-0.0119577
-0.0191566
-0.0263366
-0.0334468
-0.0402804
-0.0962196
-0.0962534
-0.0962956
-0.0963459
-0.0964017
-0.096463
-0.0965295
-0.0966003
-0.0966739
-0.0967489
-0.096824
-0.0968976
-0.0969685
-0.0970351
-0.0970964
-0.0971511
-0.0971982
-0.0972367
-0.0972659
-0.0972853
-0.0972942
-0.0972924
-0.0972797
-0.0972562
-0.0972219
-0.0971775
-0.0971237
-0.0970621
-0.0969947
-0.0969245
-0.0968557
-0.0967932
-0.096742
-0.0967059
-0.0966856
-0.0966755
-0.0966615
-0.0966179
-0.0965082
-0.096287
-0.0959044
-0.0953096
-0.0944487
-0.0932596
-0.0916645
-0.0895675
-0.0868568
-0.0834107
-0.0791029
-0.0738437
-0.0675857
-0.0603239
-0.0521186
-0.0430733
-0.0333232
-0.0230505
-0.0124681
-0.00181003
0.00868886
0.0187978
0.0283052
0.0370233
0.0447977
0.0515189
0.0571174
0.061564
0.0648649
0.0670583
0.0682086
0.0683998
0.0677305
0.0663102
0.0642481
0.0616542
0.0586292
0.0552693
0.0516561
0.0478657
0.043957
0.0399852
0.0359871
0.0319995
0.0280399
0.0241311
0.020274
0.016482
0.0127414
0.00906123
0.00541323
0.00180907
-0.0962169
-0.0962464
-0.0962715
-0.0963096
-0.0963568
-0.0964122
-0.096474
-0.0965406
-0.0966105
-0.0966822
-0.0967544
-0.0968255
-0.0968942
-0.096959
-0.0970187
-0.097072
-0.0971178
-0.097155
-0.097183
-0.0972009
-0.0972082
-0.0972047
-0.0971899
-0.0971638
-0.0971265
-0.0970783
-0.0970197
-0.0969516
-0.0968754
-0.096793
-0.0967067
-0.0966197
-0.0965352
-0.0964562
-0.0963836
-0.0963146
-0.096241
-0.0961471
-0.0960092
-0.0957965
-0.095471
-0.0949872
-0.094289
-0.0933044
-0.0919392
-0.0900747
-0.0875709
-0.0842844
-0.0800967
-0.0749267
-0.0687818
-0.0616413
-0.0535221
-0.0445135
-0.0347686
-0.0244791
-0.0138619
-0.00315751
0.00739646
0.0175587
0.0271143
0.0358869
0.0436958
0.0504467
0.056071
0.0605413
0.063861
0.0660708
0.0672372
0.0674514
0.0668099
0.0654223
0.0633959
0.0608422
0.0578599
0.054547
0.0509823
0.0472441
0.0433877
0.0394714
0.035527
0.0315959
0.0276889
0.0238353
0.020027
0.0162869
0.0125893
0.00895712
0.00534954
0.00179844
-0.0960991
-0.0961802
-0.0962231
-0.0962731
-0.0963255
-0.0963827
-0.096446
-0.0965143
-0.0965861
-0.0966601
-0.0967347
-0.0968085
-0.0968798
-0.0969473
-0.0970095
-0.0970651
-0.0971129
-0.0971519
-0.0971812
-0.0971999
-0.0972076
-0.097204
-0.0971887
-0.0971618
-0.0971235
-0.0970741
-0.0970143
-0.0969447
-0.0968663
-0.0967802
-0.0966881
-0.0965919
-0.0964937
-0.0963952
-0.0962975
-0.0962009
-0.0961038
-0.096003
-0.0958909
-0.0957506
-0.0955551
-0.0952609
-0.0947998
-0.094079
-0.092978
-0.0913578
-0.0890667
-0.0859651
-0.0819425
-0.0768961
-0.0707574
-0.0635673
-0.0553877
-0.0463303
-0.0365428
-0.0262108
-0.015557
-0.00484946
0.00569067
0.0158345
0.0253683
0.0341089
0.0418928
0.0486136
0.0542048
0.0586433
0.0619352
0.0641254
0.0652807
0.0654943
0.0648636
0.0635012
0.0615125
0.059011
0.0560923
0.0528562
0.0493776
0.0457368
0.0419844
0.0381811
0.0343537
0.0305468
0.0267658
0.0230437
0.019367
0.0157618
0.0121973
0.00869703
0.00521465
0.00177731
-0.0961886
-0.0962589
-0.0962597
-0.0962811
-0.0963217
-0.0963788
-0.0964469
-0.096522
-0.0966014
-0.0966832
-0.0967655
-0.0968466
-0.0969246
-0.0969981
-0.0970655
-0.0971255
-0.0971768
-0.0972182
-0.0972489
-0.0972682
-0.0972758
-0.0972713
-0.0972547
-0.0972258
-0.0971849
-0.0971321
-0.0970678
-0.0969921
-0.0969058
-0.0968093
-0.0967029
-0.0965874
-0.0964646
-0.0963383
-0.096214
-0.096098
-0.0959969
-0.0959146
-0.0958493
-0.095791
-0.095716
-0.0955795
-0.0952984
-0.0947594
-0.0938252
-0.0923614
-0.0902013
-0.0871934
-0.08322
-0.0782093
-0.0721228
-0.0649811
-0.0568498
-0.047849
-0.0381354
-0.0279018
-0.0173759
-0.00680743
0.00356767
0.0135251
0.0228544
0.0313793
0.0389519
0.0454701
0.0508713
0.0551392
0.0582864
0.0603637
0.0614399
0.0616113
0.0609755
0.0596462
0.0577258
0.0553258
0.0525376
0.0494582
0.046158
0.0427145
0.0391742
0.0355954
0.0320019
0.0284359
0.0249015
0.0214289
0.0180051
0.0146524
0.0113421
0.00809175
0.00485789
0.00165777
-0.0958614
-0.0960646
-0.0961519
-0.0962511
-0.0963444
-0.096432
-0.0965188
-0.0966079
-0.0966991
-0.0967909
-0.0968816
-0.0969695
-0.0970531
-0.0971307
-0.097201
-0.0972625
-0.0973141
-0.0973546
-0.0973831
-0.0973991
-0.0974024
-0.0973929
-0.0973709
-0.0973365
-0.0972898
-0.0972311
-0.0971607
-0.0970787
-0.096985
-0.0968797
-0.0967627
-0.0966343
-0.096496
-0.0963527
-0.0962131
-0.0960875
-0.0959865
-0.0959183
-0.0958839
-0.0958705
-0.0958487
-0.095787
-0.0955775
-0.095102
-0.0942175
-0.0927664
-0.0906121
-0.0876118
-0.0836531
-0.0786679
-0.0726295
-0.0655645
-0.057548
-0.0487046
-0.039198
-0.0292255
-0.0190102
-0.00879044
0.00119886
0.0107408
0.0196378
0.0277258
0.0348728
0.0409898
0.0460249
0.049971
0.0528503
0.0547203
0.0556538
0.0557479
0.0550997
0.0538196
0.052006
0.0497642
0.0471797
0.0443424
0.0413174
0.038175
0.0349579
0.0317175
0.0284761
0.0252693
0.022102
0.0189977
0.0159469
0.0129644
0.0100279
0.00714656
0.00428748
0.00145972
-0.0966991
-0.0967178
-0.0966112
-0.09656
-0.0965641
-0.0966158
-0.0966976
-0.0967924
-0.0968891
-0.0969844
-0.0970765
-0.0971636
-0.0972445
-0.0973179
-0.0973825
-0.0974372
-0.0974812
-0.0975133
-0.0975329
-0.0975396
-0.0975336
-0.0975152
-0.0974849
-0.097443
-0.0973896
-0.0973248
-0.0972492
-0.0971627
-0.0970648
-0.096955
-0.0968331
-0.0966989
-0.0965528
-0.0964024
-0.0962598
-0.0961339
-0.0960346
-0.0959691
-0.0959374
-0.0959244
-0.095892
-0.0957792
-0.0955057
-0.094952
-0.0939778
-0.092438
-0.0901936
-0.0871185
-0.083114
-0.0781233
-0.0721325
-0.0651776
-0.0573433
-0.0487608
-0.0395992
-0.0300568
-0.0203515
-0.010708
-0.00134584
0.00753423
0.0157548
0.0231711
0.0296721
0.0351879
0.0396839
0.0431655
0.0456664
0.0472506
0.0479952
0.0479949
0.0473442
0.0461455
0.0444911
0.0424754
0.0401763
0.0376722
0.0350216
0.0322837
0.0294973
0.0267038
0.023924
0.0211849
0.0184925
0.0158628
0.0132899
0.0107814
0.00832224
0.00591461
0.00353693
0.00119199
-0.0953524
-0.0960062
-0.0962069
-0.0964599
-0.0966713
-0.0968302
-0.0969476
-0.0970428
-0.0971294
-0.097211
-0.0972879
-0.0973595
-0.0974247
-0.0974824
-0.0975318
-0.097572
-0.0976026
-0.0976222
-0.0976299
-0.0976258
-0.0976101
-0.097583
-0.0975449
-0.0974961
-0.0974365
-0.0973661
-0.097287
-0.0971984
-0.0970991
-0.0969886
-0.0968666
-0.0967334
-0.0965893
-0.0964357
-0.0962799
-0.0961352
-0.0960095
-0.0959044
-0.0958133
-0.0957161
-0.0955722
-0.0953225
-0.0948801
-0.0941306
-0.0929449
-0.0911905
-0.0887437
-0.0854995
-0.0813802
-0.0763461
-0.0703993
-0.0635894
-0.056012
-0.0478052
-0.0391394
-0.0302091
-0.0212211
-0.0123828
-0.00388858
0.00408856
0.0114016
0.0179338
0.0236018
0.028359
0.0321922
0.0351206
0.0371885
0.0384624
0.0390197
0.0389482
0.0383357
0.0372723
0.0358405
0.0341204
0.0321804
0.0300847
0.027884
0.0256253
0.0233424
0.0210666
0.0188166
0.0166108
0.0144564
0.0123621
0.0103258
0.00834917
0.00642359
0.0045463
0.00270544
0.000899836
-0.100076
-0.0987024
-0.0980715
-0.0976345
-0.0974038
-0.0973097
-0.0972925
-0.0973104
-0.097342
-0.0973799
-0.097421
-0.0974625
-0.0975026
-0.0975397
-0.0975724
-0.097599
-0.0976192
-0.0976281
-0.0976266
-0.0976156
-0.097595
-0.0975644
-0.0975238
-0.0974733
-0.0974122
-0.0973377
-0.0972487
-0.0971481
-0.0970349
-0.0969068
-0.0967622
-0.0966001
-0.0964207
-0.0962263
-0.096022
-0.0958134
-0.0956028
-0.0953864
-0.095151
-0.0948711
-0.0945036
-0.0939862
-0.0932359
-0.0921519
-0.090622
-0.0885346
-0.0857891
-0.0823072
-0.0780378
-0.0729636
-0.0671058
-0.0605282
-0.0533334
-0.045659
-0.0376699
-0.0295483
-0.0214805
-0.0136481
-0.00621593
0.000677952
0.00692485
0.0124423
0.0171785
0.0211115
0.0242478
0.0266169
0.0282677
0.0292626
0.0296733
0.0295758
0.0290476
0.0281643
0.0269968
0.0256102
0.0240621
0.0224027
0.020675
0.0189144
0.0171499
0.0154038
0.0136927
0.0120278
0.0104167
0.00886222
0.00736574
0.00592423
0.00453478
0.00319049
0.00188642
0.000615463
-0.0942163
-0.0953224
-0.0961645
-0.0967765
-0.0970902
-0.0972032
-0.0972309
-0.0972357
-0.0972438
-0.097266
-0.0972973
-0.0973313
-0.0973652
-0.0973974
-0.0974269
-0.097452
-0.0974725
-0.0974885
-0.0974908
-0.0974783
-0.0974533
-0.0974165
-0.0973665
-0.0973012
-0.0972186
-0.0971169
-0.0969949
-0.0968517
-0.0966858
-0.0964946
-0.0962754
-0.0960261
-0.0957455
-0.0954331
-0.0950894
-0.0947143
-0.0943046
-0.0938516
-0.0933372
-0.0927327
-0.0919969
-0.0910732
-0.0898905
-0.088367
-0.0864151
-0.0839503
-0.0808987
-0.077204
-0.0728381
-0.0678074
-0.0621534
-0.0559518
-0.0493087
-0.0423556
-0.0352413
-0.0281226
-0.0211529
-0.0144756
-0.00821564
-0.0024779
0.00266168
0.00715284
0.010972
0.0141163
0.0166044
0.0184694
0.0197582
0.0205242
0.020829
0.0207349
0.0203089
0.0196131
0.0187084
0.0176459
0.0164738
0.0152297
0.0139492
0.0126575
0.0113797
0.0101296
0.00892287
0.0077635
0.00666048
0.00561061
0.00461896
0.0036771
0.0027885
0.00194112
0.00113859
0.000366025
-0.116968
-0.102023
-0.100085
-0.0986016
-0.0976806
-0.097246
-0.0970652
-0.0969944
-0.0969629
-0.0969544
-0.0969792
-0.0970277
-0.0970827
-0.0971337
-0.0971775
-0.0972127
-0.097238
-0.0972505
-0.0972441
-0.0972161
-0.0971664
-0.0970941
-0.096997
-0.096872
-0.096716
-0.0965263
-0.0962999
-0.0960341
-0.0957263
-0.0953741
-0.0949753
-0.0945272
-0.0940276
-0.0934747
-0.0928667
-0.0922005
-0.0914704
-0.0906657
-0.0897682
-0.0887496
-0.0875693
-0.0861781
-0.0845205
-0.082537
-0.0801676
-0.0773575
-0.0740634
-0.0702596
-0.0659432
-0.0611376
-0.0558922
-0.0502803
-0.0443962
-0.0383517
-0.0322686
-0.0262715
-0.0204783
-0.0149949
-0.00991015
-0.00529673
-0.00120407
0.00234108
0.0053316
0.00777357
0.00968942
0.0111112
0.012082
0.0126467
0.0128572
0.0127649
0.0124275
0.0118967
0.0112248
0.0104521
0.00961821
0.00874964
0.00787516
0.00700981
0.00617431
0.00537434
0.00462477
0.00392317
0.00328051
0.00268717
0.00215243
0.00166094
0.00122351
0.000820628
0.000466677
0.000135474
-0.0844218
-0.0909237
-0.0934378
-0.0942688
-0.0946985
-0.0950812
-0.0954333
-0.0957261
-0.0959772
-0.096194
-0.0963769
-0.0965283
-0.0966519
-0.0967507
-0.0968263
-0.0968781
-0.0969034
-0.0968982
-0.0968575
-0.0967774
-0.096655
-0.0964883
-0.0962752
-0.0960132
-0.0956998
-0.0953327
-0.0949093
-0.0944274
-0.0938841
-0.0932755
-0.0925982
-0.0918501
-0.0910296
-0.0901354
-0.0891651
-0.0881152
-0.0869796
-0.0857482
-0.0844054
-0.0829291
-0.0812907
-0.0794564
-0.0773895
-0.0750524
-0.0724099
-0.0694326
-0.0661005
-0.0624072
-0.0583622
-0.0539928
-0.0493431
-0.0444723
-0.0394547
-0.0343778
-0.0293361
-0.0244261
-0.0197395
-0.0153572
-0.0113425
-0.00773954
-0.00457454
-0.00185998
0.000404401
0.00222837
0.00363504
0.00465615
0.00533222
0.00570427
0.00581822
0.00571832
0.00545357
0.00506638
0.00460041
0.00408722
0.00355906
0.00303323
0.00253068
0.00205663
0.00162536
0.00123417
0.000895887
0.000602876
0.000367837
0.000175795
3.9812e-05
-6.21361e-05
-0.000112211
-0.000138477
-0.000114756
-7.82208e-05
-0.0783411
-0.0861341
-0.0901278
-0.0915567
-0.091985
-0.0923074
-0.0927846
-0.0933749
-0.093964
-0.0944773
-0.0948948
-0.0952263
-0.0954901
-0.0957004
-0.0958633
-0.0959783
-0.0960408
-0.0960446
-0.0959832
-0.0958516
-0.0956457
-0.0953632
-0.0950028
-0.0945634
-0.0940443
-0.0934451
-0.0927651
-0.092004
-0.0911608
-0.0902349
-0.0892257
-0.0881331
-0.0869575
-0.0856987
-0.0843561
-0.0829277
-0.0814096
-0.0797952
-0.0780749
-0.0762353
-0.0742595
-0.0721272
-0.0698156
-0.0673022
-0.0645673
-0.0615956
-0.0583795
-0.0549208
-0.0512332
-0.0473431
-0.0432906
-0.0391291
-0.0349199
-0.0307288
-0.0266249
-0.0226792
-0.0189606
-0.0155287
-0.0124285
-0.00968948
-0.00732744
-0.00534415
-0.00372655
-0.00245467
-0.00150305
-0.000841438
-0.000432135
-0.000233635
-0.00019999
-0.000288546
-0.000459905
-0.000684264
-0.000932518
-0.00118262
-0.00141163
-0.00160869
-0.00176193
-0.00187324
-0.00193786
-0.00196541
-0.00194853
-0.00189709
-0.00179965
-0.0016721
-0.00149989
-0.00130623
-0.0010688
-0.000818872
-0.000521459
-0.000221214
-0.0680479
-0.075264
-0.080608
-0.0840761
-0.0861882
-0.0876086
-0.088787
-0.0899014
-0.0909636
-0.0919284
-0.0927589
-0.093446
-0.0940005
-0.0944388
-0.0947738
-0.095011
-0.0951503
-0.095188
-0.0951195
-0.094941
-0.0946499
-0.0942453
-0.0937278
-0.0930988
-0.0923606
-0.0915158
-0.090567
-0.0895171
-0.0883689
-0.0871249
-0.0857875
-0.0843592
-0.082842
-0.0812376
-0.0795472
-0.077771
-0.0759079
-0.0739554
-0.0719096
-0.0697645
-0.067513
-0.0651465
-0.0626562
-0.0600325
-0.0572665
-0.0543517
-0.0512863
-0.0480747
-0.0447301
-0.0412758
-0.0377477
-0.0341933
-0.0306684
-0.027232
-0.0239403
-0.0208423
-0.0179765
-0.0153728
-0.0130575
-0.011057
-0.00938948
-0.00804958
-0.00700096
-0.0061975
-0.00560414
-0.00519861
-0.00495678
-0.00484125
-0.00480221
-0.00479515
-0.00479326
-0.00478777
-0.0047737
-0.00474559
-0.00469314
-0.00460945
-0.00448779
-0.0043296
-0.0041334
-0.00390485
-0.00364257
-0.0033558
-0.00304023
-0.00270767
-0.00234823
-0.00197777
-0.00157688
-0.00116863
-0.000719902
-0.000272337
-0.0627249
-0.0693417
-0.0748017
-0.0789971
-0.082052
-0.0842791
-0.0860216
-0.087519
-0.0888793
-0.0901203
-0.091222
-0.0921645
-0.0929415
-0.0935585
-0.0940251
-0.0943487
-0.0945321
-0.0945743
-0.0944726
-0.0942244
-0.0938283
-0.0932848
-0.0925961
-0.0917662
-0.0907998
-0.0897027
-0.0884808
-0.0871406
-0.085688
-0.084129
-0.0824685
-0.0807114
-0.0788616
-0.0769227
-0.0748981
-0.0727906
-0.0706026
-0.0683361
-0.0659928
-0.0635739
-0.0610804
-0.0585139
-0.0558758
-0.0531675
-0.0503899
-0.0475445
-0.0446342
-0.0416642
-0.0386439
-0.0355895
-0.0325285
-0.0295029
-0.0265701
-0.0237953
-0.0212338
-0.018916
-0.0168405
-0.0149854
-0.0133427
-0.0119399
-0.0108184
-0.00997998
-0.00936493
-0.00887996
-0.00846849
-0.00812954
-0.00787884
-0.00770487
-0.00756342
-0.0074093
-0.00721692
-0.00698288
-0.0067196
-0.00644459
-0.00616695
-0.00588693
-0.00559814
-0.00529557
-0.00497425
-0.00463387
-0.00427296
-0.00389484
-0.00349858
-0.00308933
-0.00266342
-0.00222707
-0.00177011
-0.00130123
-0.000799935
-0.000287053
-0.058133
-0.0643883
-0.0698291
-0.0743569
-0.0779766
-0.0808217
-0.0831041
-0.0850253
-0.0867191
-0.0882442
-0.0896087
-0.0907991
-0.0918019
-0.0926118
-0.0932304
-0.0936615
-0.0939081
-0.0939708
-0.0938489
-0.0935416
-0.0930497
-0.0923754
-0.0915232
-0.0904993
-0.0893115
-0.0879684
-0.0864797
-0.0848554
-0.0831052
-0.0812381
-0.0792622
-0.0771847
-0.0750121
-0.0727502
-0.0704047
-0.0679817
-0.0654874
-0.062929
-0.0603138
-0.0576502
-0.0549466
-0.0522125
-0.049458
-0.0466944
-0.0439328
-0.041184
-0.038457
-0.0357579
-0.0330905
-0.0304593
-0.0278749
-0.0253615
-0.0229733
-0.0207858
-0.0188693
-0.0172495
-0.0158745
-0.0146485
-0.0135218
-0.0125182
-0.0117114
-0.0111368
-0.0107356
-0.010385
-0.00999693
-0.00957139
-0.0091648
-0.00881104
-0.00849312
-0.00819408
-0.00790347
-0.00760307
-0.00728302
-0.00694769
-0.00660384
-0.00625461
-0.00589952
-0.00553755
-0.00516675
-0.0047861
-0.00439396
-0.00399091
-0.00357643
-0.00315205
-0.0027163
-0.00227
-0.00180814
-0.00132981
-0.000822541
-0.000289878
-0.0544889
-0.0605311
-0.0659412
-0.0706402
-0.0746038
-0.0778856
-0.0806078
-0.0829174
-0.0849363
-0.086737
-0.0883461
-0.0897613
-0.0909696
-0.0919592
-0.0927235
-0.0932602
-0.0935691
-0.0936499
-0.0935027
-0.0931287
-0.0925314
-0.0917165
-0.0906917
-0.0894665
-0.0880517
-0.0864594
-0.0847026
-0.0827945
-0.0807484
-0.0785766
-0.0762908
-0.073901
-0.0714165
-0.068846
-0.0661982
-0.0634826
-0.0607099
-0.0578929
-0.0550459
-0.052185
-0.0493265
-0.0464863
-0.0436801
-0.0409262
-0.0382458
-0.0356595
-0.0331797
-0.0308102
-0.0285465
-0.026379
-0.0242957
-0.0222929
-0.020403
-0.0186901
-0.0172431
-0.0161111
-0.015211
-0.0144089
-0.0136238
-0.0128652
-0.0121679
-0.011578
-0.0111145
-0.0107216
-0.0103447
-0.00998082
-0.00963727
-0.00928356
-0.00890795
-0.0085122
-0.00810241
-0.00769436
-0.00730195
-0.00692778
-0.00656863
-0.00621906
-0.00587116
-0.00551802
-0.00515472
-0.0047795
-0.00439098
-0.00398956
-0.00357593
-0.00315137
-0.00271572
-0.00226887
-0.00180789
-0.00132942
-0.000825796
-0.000291467
-0.0515562
-0.0574849
-0.0628757
-0.0676623
-0.0718243
-0.0753941
-0.0784487
-0.0810876
-0.0834052
-0.0854689
-0.0873121
-0.0889409
-0.0903451
-0.0915092
-0.0924196
-0.0930668
-0.0934448
-0.0935501
-0.0933817
-0.0929414
-0.0922361
-0.0912764
-0.0900755
-0.0886473
-0.0870068
-0.08517
-0.0831538
-0.0809752
-0.0786513
-0.0761983
-0.0736312
-0.0709636
-0.068208
-0.0653762
-0.0624802
-0.0595332
-0.0565504
-0.0535501
-0.0505542
-0.047588
-0.0446778
-0.0418468
-0.039109
-0.0364794
-0.033984
-0.0316453
-0.0294679
-0.0274412
-0.025552
-0.0237796
-0.0221069
-0.0205449
-0.0191036
-0.0177867
-0.0166426
-0.0156776
-0.0148672
-0.0141667
-0.0135545
-0.0130428
-0.012643
-0.0122478
-0.0117523
-0.011153
-0.0105396
-0.00998992
-0.00951761
-0.00911994
-0.00876149
-0.0084093
-0.00805094
-0.00768591
-0.00731485
-0.00694919
-0.00658925
-0.00623222
-0.00587414
-0.00551134
-0.00514093
-0.00476015
-0.00436794
-0.00396449
-0.00355019
-0.00312549
-0.00269016
-0.00224347
-0.00178336
-0.00130745
-0.000811968
-0.000286815
-0.0491437
-0.0550399
-0.0604247
-0.0652534
-0.0695268
-0.073284
-0.0765849
-0.0794979
-0.0820874
-0.0844047
-0.0864797
-0.088321
-0.0899205
-0.0912612
-0.0923237
-0.093091
-0.0935507
-0.0936946
-0.093519
-0.0930255
-0.0922229
-0.0911275
-0.0897588
-0.0881383
-0.0862885
-0.0842322
-0.0819921
-0.0795903
-0.077048
-0.0743844
-0.0716174
-0.0687629
-0.0658354
-0.0628486
-0.0598164
-0.0567541
-0.0536791
-0.0506129
-0.0475812
-0.0446152
-0.0417494
-0.0390175
-0.0364413
-0.0340319
-0.0318037
-0.0297569
-0.0278727
-0.0261125
-0.0244317
-0.0228183
-0.0213037
-0.0199554
-0.0188318
-0.01797
-0.0173057
-0.016627
-0.0158078
-0.0148546
-0.0138921
-0.0130821
-0.0124446
-0.0119337
-0.0114676
-0.0109959
-0.0105184
-0.0100561
-0.009629
-0.00923395
-0.00885212
-0.00847149
-0.00808883
-0.00770744
-0.00733124
-0.00696124
-0.00659615
-0.00623364
-0.00587031
-0.00550277
-0.00512831
-0.00474497
-0.00435155
-0.00394757
-0.0035329
-0.00310751
-0.00267098
-0.00222239
-0.00176046
-0.00128521
-0.000796349
-0.000280265
-0.0475947
-0.0534505
-0.0587949
-0.063619
-0.0679471
-0.0718203
-0.07529
-0.0784074
-0.0812151
-0.0837484
-0.0860284
-0.0880597
-0.0898329
-0.0913291
-0.0925262
-0.0934026
-0.0939397
-0.0941251
-0.093953
-0.0934253
-0.0925512
-0.0913464
-0.0898351
-0.0880475
-0.086017
-0.083777
-0.0813595
-0.0787937
-0.0761054
-0.0733169
-0.0704472
-0.0675124
-0.0645266
-0.0615024
-0.0584527
-0.055391
-0.0523336
-0.0493004
-0.0463166
-0.0434141
-0.0406314
-0.0380129
-0.0356028
-0.0334384
-0.0315263
-0.0298351
-0.0282996
-0.026839
-0.0253571
-0.0238091
-0.0222087
-0.0206353
-0.0192042
-0.0180108
-0.0170356
-0.0161965
-0.0154044
-0.0146274
-0.0138894
-0.0132242
-0.0126544
-0.0121398
-0.0116329
-0.0111168
-0.0106042
-0.0101172
-0.00966794
-0.00925151
-0.00885719
-0.00847408
-0.00809575
-0.00771994
-0.0073467
-0.00697689
-0.00660991
-0.006244
-0.00587669
-0.00550543
-0.00512797
-0.00474249
-0.00434772
-0.0039428
-0.0035272
-0.00310051
-0.00266221
-0.00221147
-0.00174767
-0.00127227
-0.000786616
-0.000276678
-0.0466708
-0.0525413
-0.0578828
-0.0627215
-0.0670974
-0.0710542
-0.0746372
-0.0778914
-0.080856
-0.083555
-0.0859977
-0.0881804
-0.0900899
-0.0917061
-0.0930059
-0.0939664
-0.0945684
-0.0947988
-0.0946526
-0.0941339
-0.0932558
-0.09204
-0.0905144
-0.0887112
-0.086665
-0.0844105
-0.0819809
-0.0794067
-0.0767148
-0.0739283
-0.0710666
-0.0681463
-0.0651811
-0.0621835
-0.0591653
-0.0561388
-0.0531182
-0.0501204
-0.0471666
-0.0442832
-0.0415017
-0.0388574
-0.0363845
-0.034108
-0.0320346
-0.0301513
-0.0284324
-0.0268053
-0.0252057
-0.02362
-0.0220647
-0.0206064
-0.0193227
-0.0182416
-0.0173319
-0.0164912
-0.0156538
-0.014813
-0.0140105
-0.0132988
-0.0126823
-0.0121324
-0.01161
-0.0111003
-0.0106071
-0.01014
-0.00970177
-0.00928801
-0.00889034
-0.00850196
-0.00811943
-0.00774175
-0.00736866
-0.00699958
-0.00663306
-0.00626707
-0.00589922
-0.00552724
-0.00514914
-0.00476329
-0.00436842
-0.00396358
-0.00354797
-0.00312093
-0.00268179
-0.00222978
-0.00176428
-0.00128583
-0.000795047
-0.000281187
)
;

boundaryField
{
    fixedWalls
    {
        type            zeroGradient;
    }
    inflowWall
    {
        type            zeroGradient;
    }
    outflowWall
    {
        type            fixedValue;
        value           uniform 0;
    }
    frontAndBack
    {
        type            empty;
    }
}


// ************************************************************************* //
