/*--------------------------------*- C++ -*----------------------------------*\
| =========                 |                                                 |
| \\      /  F ield         | OpenFOAM: The Open Source CFD Toolbox           |
|  \\    /   O peration     | Version:  2306                                  |
|   \\  /    A nd           | Website:  www.openfoam.com                      |
|    \\/     M anipulation  |                                                 |
\*---------------------------------------------------------------------------*/
FoamFile
{
    version     2.0;
    format      ascii;
    arch        "LSB;label=32;scalar=64";
    class       volVectorField;
    location    "0.66";
    object      U;
}
// * * * * * * * * * * * * * * * * * * * * * * * * * * * * * * * * * * * * * //

dimensions      [0 1 -1 0 0 0 0];

internalField   nonuniform List<vector> 
47500
(
(0.708058 0.141126 0)
(0.605107 0.126852 0)
(0.442238 0.0756733 0)
(0.323205 0.0428889 0)
(0.252628 0.0249084 0)
(0.207935 0.0151468 0)
(0.177257 0.00977788 0)
(0.155189 0.00671789 0)
(0.138693 0.0048735 0)
(0.125941 0.00368955 0)
(0.115823 0.00288364 0)
(0.107638 0.00230732 0)
(0.100916 0.00187861 0)
(0.095332 0.00154969 0)
(0.0906513 0.00129107 0)
(0.0867007 0.00108369 0)
(0.0833487 0.000914676 0)
(0.0804939 0.000775021 0)
(0.0780566 0.000658252 0)
(0.0759733 0.000559601 0)
(0.0741927 0.000475481 0)
(0.0726732 0.000403144 0)
(0.0713805 0.00034045 0)
(0.0702862 0.000285706 0)
(0.0693667 0.000237554 0)
(0.0686022 0.000194885 0)
(0.0679763 0.000156785 0)
(0.0674751 0.000122485 0)
(0.0670873 9.13282e-05 0)
(0.0668035 6.27431e-05 0)
(0.066616 3.62215e-05 0)
(0.0665191 1.12996e-05 0)
(0.0665085 -1.24599e-05 0)
(0.0665814 -3.54859e-05 0)
(0.066737 -5.82178e-05 0)
(0.0669761 -8.11306e-05 0)
(0.0673017 -0.00010477 0)
(0.0677197 -0.00012981 0)
(0.0682392 -0.000157147 0)
(0.0688749 -0.00018812 0)
(0.0696487 -0.000224994 0)
(0.0705951 -0.000272225 0)
(0.0717706 -0.000339845 0)
(0.0732751 -0.000452806 0)
(0.0752976 -0.000676779 0)
(0.078214 -0.00118827 0)
(0.082894 -0.00247056 0)
(0.091769 -0.00591943 0)
(0.110507 -0.0158017 0)
(0.145424 -0.0449152 0)
(0.990012 0.273751 0)
(0.981277 0.298007 0)
(0.863903 0.21609 0)
(0.734143 0.146999 0)
(0.62832 0.100193 0)
(0.545477 0.069771 0)
(0.48066 0.05016 0)
(0.429787 0.0373105 0)
(0.389455 0.0286159 0)
(0.357039 0.022513 0)
(0.330632 0.0180772 0)
(0.308863 0.0147523 0)
(0.290735 0.0121935 0)
(0.27551 0.0101803 0)
(0.262635 0.00856659 0)
(0.251688 0.00725242 0)
(0.242341 0.0061676 0)
(0.234337 0.00526148 0)
(0.22747 0.00449675 0)
(0.221574 0.00384535 0)
(0.216514 0.00328583 0)
(0.212178 0.00280151 0)
(0.208476 0.00237923 0)
(0.20533 0.00200844 0)
(0.202675 0.00168059 0)
(0.200459 0.00138863 0)
(0.198636 0.00112664 0)
(0.197168 0.000889605 0)
(0.196024 0.00067317 0)
(0.195178 0.000473472 0)
(0.194609 0.000286992 0)
(0.194302 0.000110417 0)
(0.194246 -5.95043e-05 0)
(0.194434 -0.000226119 0)
(0.194866 -0.00039307 0)
(0.195547 -0.00056457 0)
(0.196487 -0.000745808 0)
(0.197709 -0.000943587 0)
(0.199246 -0.0011674 0)
(0.201148 -0.00143132 0)
(0.203493 -0.00175762 0)
(0.206399 -0.00218393 0)
(0.210048 -0.00277823 0)
(0.214734 -0.00367161 0)
(0.220937 -0.0051313 0)
(0.22944 -0.00772132 0)
(0.241558 -0.0126526 0)
(0.259594 -0.0225916 0)
(0.286463 -0.0434294 0)
(0.320508 -0.0855651 0)
(1.02873 0.230537 0)
(1.06518 0.337273 0)
(1.02857 0.307935 0)
(0.952112 0.249931 0)
(0.866774 0.194722 0)
(0.785961 0.15009 0)
(0.714441 0.116323 0)
(0.653202 0.091316 0)
(0.601486 0.0727586 0)
(0.557967 0.0588158 0)
(0.521294 0.0481663 0)
(0.490281 0.0398887 0)
(0.463943 0.0333449 0)
(0.44148 0.0280902 0)
(0.422248 0.0238108 0)
(0.40573 0.0202814 0)
(0.391508 0.0173377 0)
(0.379242 0.0148577 0)
(0.368654 0.0127494 0)
(0.359514 0.0109424 0)
(0.351633 0.00938174 0)
(0.344852 0.00802442 0)
(0.339038 0.00683593 0)
(0.33408 0.0057884 0)
(0.329882 0.00485894 0)
(0.326364 0.00402855 0)
(0.323459 0.00328114 0)
(0.321111 0.00260294 0)
(0.319272 0.00198189 0)
(0.317903 0.00140715 0)
(0.316974 0.000868772 0)
(0.316461 0.000357226 0)
(0.316347 -0.000136965 0)
(0.316625 -0.000623722 0)
(0.317294 -0.00111402 0)
(0.318362 -0.00162073 0)
(0.319851 -0.00215985 0)
(0.321794 -0.00275244 0)
(0.324247 -0.00342767 0)
(0.327288 -0.00422795 0)
(0.331034 -0.00521778 0)
(0.335656 -0.00649948 0)
(0.341401 -0.00824166 0)
(0.348634 -0.0107317 0)
(0.357875 -0.014472 0)
(0.369841 -0.0203491 0)
(0.385447 -0.0299056 0)
(0.405662 -0.0457442 0)
(0.430539 -0.0719369 0)
(0.456224 -0.112673 0)
(1.02485 0.170713 0)
(1.0701 0.31458 0)
(1.08052 0.338862 0)
(1.05259 0.311341 0)
(1.00162 0.267049 0)
(0.941437 0.222039 0)
(0.880405 0.182511 0)
(0.822876 0.149853 0)
(0.770722 0.123532 0)
(0.724425 0.102475 0)
(0.683787 0.0855988 0)
(0.648316 0.0719866 0)
(0.617433 0.0609114 0)
(0.590566 0.0518145 0)
(0.567191 0.0442711 0)
(0.54685 0.0379583 0)
(0.529144 0.0326297 0)
(0.513733 0.0280954 0)
(0.500326 0.0242083 0)
(0.488676 0.0208527 0)
(0.478572 0.0179369 0)
(0.469833 0.0153874 0)
(0.462307 0.0131445 0)
(0.455862 0.0111594 0)
(0.450384 0.0093916 0)
(0.445778 0.00780686 0)
(0.441962 0.00637615 0)
(0.438866 0.00507424 0)
(0.436432 0.00387883 0)
(0.434612 0.00276978 0)
(0.433369 0.00172833 0)
(0.432672 0.000736389 0)
(0.432502 -0.000224182 0)
(0.432848 -0.00117251 0)
(0.433712 -0.00212984 0)
(0.435104 -0.00312107 0)
(0.437051 -0.00417698 0)
(0.439595 -0.00533757 0)
(0.442801 -0.00665713 0)
(0.446763 -0.00821226 0)
(0.451611 -0.0101147 0)
(0.457524 -0.0125322 0)
(0.464746 -0.0157221 0)
(0.473597 -0.020085 0)
(0.484473 -0.0262472 0)
(0.497814 -0.0351753 0)
(0.513979 -0.0482967 0)
(0.532962 -0.0675473 0)
(0.553654 -0.0950917 0)
(0.572642 -0.131805 0)
(1.01676 0.128188 0)
(1.05701 0.275119 0)
(1.08731 0.331706 0)
(1.09071 0.333618 0)
(1.07009 0.308319 0)
(1.03427 0.272656 0)
(0.990736 0.235656 0)
(0.944689 0.201449 0)
(0.899382 0.171492 0)
(0.856629 0.145945 0)
(0.817292 0.124422 0)
(0.781666 0.106361 0)
(0.749723 0.0911944 0)
(0.721266 0.0784164 0)
(0.696027 0.0675992 0)
(0.673711 0.0583918 0)
(0.654028 0.0505098 0)
(0.636705 0.0437236 0)
(0.621493 0.0378478 0)
(0.608167 0.0327323 0)
(0.596531 0.0282548 0)
(0.586407 0.024315 0)
(0.577642 0.02083 0)
(0.570101 0.0177306 0)
(0.563667 0.0149585 0)
(0.558237 0.0124639 0)
(0.553724 0.0102041 0)
(0.550051 0.00814125 0)
(0.547156 0.00624182 0)
(0.544985 0.00447506 0)
(0.543495 0.00281213 0)
(0.542656 0.00122502 0)
(0.542443 -0.00031454 0)
(0.542847 -0.00183643 0)
(0.543866 -0.00337377 0)
(0.545514 -0.00496512 0)
(0.547817 -0.00665753 0)
(0.550819 -0.00851098 0)
(0.554587 -0.0106048 0)
(0.559211 -0.013047 0)
(0.564811 -0.0159888 0)
(0.571544 -0.0196452 0)
(0.579601 -0.0243249 0)
(0.589204 -0.0304723 0)
(0.600575 -0.0387186 0)
(0.613869 -0.0499312 0)
(0.629036 -0.0652204 0)
(0.645581 -0.0858208 0)
(0.66218 -0.112682 0)
(0.676375 -0.145443 0)
(1.01072 0.0991317 0)
(1.04301 0.23517 0)
(1.0786 0.307021 0)
(1.09883 0.330721 0)
(1.09974 0.324345 0)
(1.08498 0.301816 0)
(1.05947 0.272329 0)
(1.02763 0.24131 0)
(0.992875 0.211623 0)
(0.957573 0.184563 0)
(0.923249 0.160547 0)
(0.890801 0.139539 0)
(0.860696 0.121295 0)
(0.833129 0.105495 0)
(0.808122 0.091814 0)
(0.785597 0.0799478 0)
(0.765418 0.0696286 0)
(0.747426 0.0606252 0)
(0.731452 0.0527413 0)
(0.717328 0.0458111 0)
(0.704896 0.0396945 0)
(0.694006 0.0342736 0)
(0.684522 0.0294482 0)
(0.676322 0.025133 0)
(0.669295 0.0212545 0)
(0.663344 0.0177493 0)
(0.658383 0.0145615 0)
(0.654336 0.0116417 0)
(0.65114 0.00894486 0)
(0.648742 0.0064297 0)
(0.647098 0.00405693 0)
(0.646174 0.00178817 0)
(0.645949 -0.000415473 0)
(0.646408 -0.00259509 0)
(0.64755 -0.00479598 0)
(0.649388 -0.00707036 0)
(0.651945 -0.00948093 0)
(0.655262 -0.0121058 0)
(0.659395 -0.0150452 0)
(0.664421 -0.0184314 0)
(0.670435 -0.0224409 0)
(0.677551 -0.0273129 0)
(0.685892 -0.0333705 0)
(0.69557 -0.0410464 0)
(0.706651 -0.0509045 0)
(0.719082 -0.0636422 0)
(0.732583 -0.0800388 0)
(0.7465 -0.100796 0)
(0.759658 -0.126201 0)
(0.770399 -0.155537 0)
(1.00696 0.078706 0)
(1.03212 0.199738 0)
(1.0665 0.27624 0)
(1.09406 0.313697 0)
(1.10825 0.322645 0)
(1.10913 0.313168 0)
(1.09906 0.29316 0)
(1.08101 0.26813 0)
(1.0578 0.241583 0)
(1.03173 0.215573 0)
(1.00456 0.191184 0)
(0.977504 0.168898 0)
(0.95136 0.148849 0)
(0.926631 0.130974 0)
(0.903601 0.115118 0)
(0.882401 0.101084 0)
(0.863066 0.0886702 0)
(0.845564 0.0776811 0)
(0.829827 0.0679384 0)
(0.815763 0.0592827 0)
(0.803269 0.0515726 0)
(0.792242 0.0446846 0)
(0.782576 0.0385102 0)
(0.774173 0.0329545 0)
(0.76694 0.0279341 0)
(0.760793 0.0233749 0)
(0.755656 0.019211 0)
(0.751459 0.0153826 0)
(0.748145 0.011835 0)
(0.745663 0.00851706 0)
(0.743971 0.00537965 0)
(0.743038 0.00237456 0)
(0.742841 -0.000547265 0)
(0.743367 -0.00343755 0)
(0.744612 -0.00635298 0)
(0.746585 -0.00935802 0)
(0.749305 -0.0125287 0)
(0.752803 -0.0159576 0)
(0.757123 -0.0197599 0)
(0.76232 -0.0240822 0)
(0.768457 -0.0291127 0)
(0.775599 -0.0350937 0)
(0.783802 -0.0423348 0)
(0.793086 -0.0512241 0)
(0.803401 -0.0622284 0)
(0.814571 -0.0758703 0)
(0.826221 -0.0926585 0)
(0.837705 -0.112945 0)
(0.848086 -0.13669 0)
(0.856261 -0.163157 0)
(1.00471 0.0639288 0)
(1.02437 0.169812 0)
(1.05518 0.244955 0)
(1.08471 0.289746 0)
(1.1061 0.309619 0)
(1.11748 0.311214 0)
(1.11927 0.300617 0)
(1.11301 0.282689 0)
(1.10065 0.260963 0)
(1.08406 0.237828 0)
(1.06488 0.214794 0)
(1.04438 0.192751 0)
(1.02351 0.172169 0)
(1.00297 0.153253 0)
(0.983224 0.136041 0)
(0.96457 0.12048 0)
(0.947192 0.106463 0)
(0.931181 0.0938616 0)
(0.916572 0.0825407 0)
(0.903353 0.0723669 0)
(0.891488 0.0632142 0)
(0.880924 0.0549661 0)
(0.871598 0.0475162 0)
(0.863444 0.0407679 0)
(0.856393 0.0346336 0)
(0.850382 0.0290337 0)
(0.845349 0.0238956 0)
(0.841238 0.0191523 0)
(0.837999 0.0147414 0)
(0.835588 0.0106036 0)
(0.833969 0.00668163 0)
(0.833114 0.00291863 0)
(0.833001 -0.000743327 0)
(0.833616 -0.0043652 0)
(0.834957 -0.00801328 0)
(0.837026 -0.011762 0)
(0.839835 -0.0156975 0)
(0.843406 -0.0199221 0)
(0.847766 -0.0245596 0)
(0.852946 -0.029762 0)
(0.858977 -0.0357168 0)
(0.865881 -0.0426546 0)
(0.873657 -0.0508549 0)
(0.882256 -0.0606465 0)
(0.891558 -0.0723965 0)
(0.901325 -0.0864772 0)
(0.91117 -0.1032 0)
(0.920525 -0.122707 0)
(0.928671 -0.144818 0)
(0.934865 -0.168885 0)
(1.00335 0.0528705 0)
(1.01892 0.144905 0)
(1.04573 0.21562 0)
(1.0745 0.263238 0)
(1.09913 0.290073 0)
(1.11694 0.300134 0)
(1.12715 0.297754 0)
(1.13018 0.286849 0)
(1.12712 0.270593 0)
(1.11929 0.251377 0)
(1.10799 0.230893 0)
(1.09438 0.21028 0)
(1.07941 0.190262 0)
(1.06384 0.171267 0)
(1.04822 0.153522 0)
(1.03299 0.137117 0)
(1.01841 0.122059 0)
(1.00469 0.1083 0)
(0.991945 0.0957667 0)
(0.980245 0.084366 0)
(0.969617 0.074001 0)
(0.960059 0.0645741 0)
(0.951555 0.0559903 0)
(0.944073 0.0481592 0)
(0.937576 0.0409955 0)
(0.932022 0.0344193 0)
(0.927369 0.0283555 0)
(0.923578 0.0227333 0)
(0.92061 0.0174854 0)
(0.918431 0.0125468 0)
(0.917012 0.0078541 0)
(0.91633 0.00334376 0)
(0.916365 -0.00104916 0)
(0.917107 -0.00539286 0)
(0.918548 -0.00976096 0)
(0.92069 -0.014235 0)
(0.923537 -0.0189078 0)
(0.927099 -0.0238866 0)
(0.931388 -0.0292979 0)
(0.936413 -0.0352919 0)
(0.942176 -0.0420468 0)
(0.948665 -0.0497723 0)
(0.955835 -0.0587103 0)
(0.963596 -0.0691288 0)
(0.971787 -0.081306 0)
(0.980157 -0.0954969 0)
(0.988342 -0.111879 0)
(0.995868 -0.130475 0)
(1.00219 -0.151061 0)
(1.0068 -0.173099 0)
(1.00249 0.0443077 0)
(1.01505 0.124158 0)
(1.03815 0.189092 0)
(1.06495 0.236619 0)
(1.09042 0.267282 0)
(1.11174 0.283267 0)
(1.12753 0.287452 0)
(1.13744 0.282786 0)
(1.14186 0.271909 0)
(1.14155 0.256995 0)
(1.13745 0.239726 0)
(1.13048 0.221343 0)
(1.12148 0.202719 0)
(1.11117 0.184445 0)
(1.10013 0.166898 0)
(1.08884 0.150298 0)
(1.07763 0.134761 0)
(1.06678 0.120326 0)
(1.05647 0.106984 0)
(1.04682 0.0946952 0)
(1.03793 0.0833999 0)
(1.02984 0.0730276 0)
(1.02258 0.0635026 0)
(1.01615 0.0547474 0)
(1.01054 0.0466851 0)
(1.00574 0.0392403 0)
(1.00173 0.0323397 0)
(0.998476 0.0259123 0)
(0.995968 0.019889 0)
(0.994179 0.0142018 0)
(0.993087 0.0087835 0)
(0.992676 0.00356621 0)
(0.992932 -0.00151979 0)
(0.993844 -0.00654763 0)
(0.995406 -0.0115957 0)
(0.997614 -0.0167497 0)
(1.00047 -0.0221054 0)
(1.00397 -0.0277714 0)
(1.00811 -0.0338719 0)
(1.01289 -0.0405498 0)
(1.01828 -0.0479688 0)
(1.02425 -0.0563137 0)
(1.03072 -0.0657875 0)
(1.03759 -0.076603 0)
(1.04466 -0.0889651 0)
(1.05171 -0.103043 0)
(1.05841 -0.118926 0)
(1.06438 -0.136575 0)
(1.0692 -0.155767 0)
(1.07251 -0.176065 0)
(1.00193 0.0374798 0)
(1.01223 0.106747 0)
(1.03212 0.165481 0)
(1.05656 0.211135 0)
(1.08152 0.243327 0)
(1.1044 0.263056 0)
(1.1236 0.272104 0)
(1.13833 0.272569 0)
(1.14845 0.266522 0)
(1.15429 0.255813 0)
(1.1564 0.241986 0)
(1.15545 0.226265 0)
(1.1521 0.209582 0)
(1.14698 0.19262 0)
(1.14063 0.175858 0)
(1.1335 0.159623 0)
(1.12598 0.144119 0)
(1.11836 0.129467 0)
(1.11086 0.115723 0)
(1.10366 0.1029 0)
(1.09689 0.0909809 0)
(1.09064 0.0799267 0)
(1.08496 0.0696864 0)
(1.07989 0.0602006 0)
(1.07546 0.0514051 0)
(1.07167 0.0432334 0)
(1.06853 0.0356178 0)
(1.06602 0.0284905 0)
(1.06415 0.0217834 0)
(1.06289 0.0154285 0)
(1.06225 0.00935731 0)
(1.06221 0.00349981 0)
(1.06276 -0.0022161 0)
(1.06389 -0.00786603 0)
(1.0656 -0.0135305 0)
(1.06788 -0.0192968 0)
(1.07073 -0.0252606 0)
(1.07414 -0.0315282 0)
(1.0781 -0.0382181 0)
(1.08258 -0.0454627 0)
(1.08754 -0.0534085 0)
(1.09294 -0.0622145 0)
(1.09869 -0.0720478 0)
(1.10465 -0.0830737 0)
(1.11067 -0.0954404 0)
(1.11651 -0.109255 0)
(1.1219 -0.124554 0)
(1.12653 -0.141269 0)
(1.13008 -0.159193 0)
(1.1323 -0.177977 0)
(1.00154 0.0319034 0)
(1.01014 0.0919934 0)
(1.02733 0.144582 0)
(1.04939 0.187342 0)
(1.07314 0.219455 0)
(1.09635 0.241192 0)
(1.1174 0.253561 0)
(1.13529 0.257972 0)
(1.14957 0.255975 0)
(1.16022 0.249066 0)
(1.16747 0.238582 0)
(1.17173 0.225655 0)
(1.17348 0.211199 0)
(1.17322 0.195927 0)
(1.1714 0.180379 0)
(1.16843 0.164947 0)
(1.16469 0.149909 0)
(1.16046 0.135447 0)
(1.156 0.121678 0)
(1.15149 0.108663 0)
(1.1471 0.0964265 0)
(1.14294 0.0849637 0)
(1.1391 0.0742501 0)
(1.13565 0.064247 0)
(1.13262 0.0549064 0)
(1.13006 0.0461734 0)
(1.12798 0.0379892 0)
(1.12639 0.0302916 0)
(1.1253 0.0230167 0)
(1.12471 0.0160987 0)
(1.12462 0.00947 0)
(1.12504 0.00306107 0)
(1.12595 -0.0032004 0)
(1.12736 -0.0093902 0)
(1.12925 -0.0155887 0)
(1.13162 -0.0218821 0)
(1.13447 -0.0283636 0)
(1.13778 -0.0351346 0)
(1.14153 -0.0423056 0)
(1.14569 -0.0499967 0)
(1.15022 -0.0583365 0)
(1.15504 -0.0674597 0)
(1.16007 -0.0775014 0)
(1.16518 -0.0885885 0)
(1.17021 -0.100826 0)
(1.17496 -0.11428 0)
(1.1792 -0.128952 0)
(1.18268 -0.144764 0)
(1.18516 -0.161535 0)
(1.18643 -0.178982 0)
(1.00126 0.0272583 0)
(1.00854 0.0793617 0)
(1.0235 0.126089 0)
(1.04334 0.165415 0)
(1.06559 0.196366 0)
(1.08837 0.218795 0)
(1.1102 0.233181 0)
(1.13002 0.240419 0)
(1.14718 0.241618 0)
(1.16144 0.237937 0)
(1.17278 0.230487 0)
(1.1814 0.220259 0)
(1.18759 0.208102 0)
(1.19169 0.194713 0)
(1.19407 0.180647 0)
(1.19508 0.166334 0)
(1.19503 0.152094 0)
(1.19421 0.13816 0)
(1.19284 0.124692 0)
(1.19114 0.111796 0)
(1.18928 0.0995317 0)
(1.18737 0.0879266 0)
(1.18554 0.0769825 0)
(1.18387 0.0666825 0)
(1.18242 0.0569958 0)
(1.18124 0.0478813 0)
(1.18036 0.0392906 0)
(1.17983 0.0311696 0)
(1.17964 0.0234605 0)
(1.17983 0.0161016 0)
(1.18039 0.00902862 0)
(1.18134 0.00217432 0)
(1.18268 -0.00453172 0)
(1.1844 -0.0111635 0)
(1.18651 -0.0177991 0)
(1.189 -0.0245216 0)
(1.19187 -0.0314197 0)
(1.19508 -0.0385882 0)
(1.19863 -0.0461282 0)
(1.20248 -0.0541469 0)
(1.20656 -0.0627555 0)
(1.21083 -0.0720665 0)
(1.21517 -0.0821883 0)
(1.21949 -0.0932172 0)
(1.22362 -0.105227 0)
(1.2274 -0.118253 0)
(1.23064 -0.132281 0)
(1.23313 -0.147231 0)
(1.23468 -0.162945 0)
(1.23514 -0.179196 0)
(1.00105 0.0233246 0)
(1.0073 0.0684349 0)
(1.02042 0.109676 0)
(1.03827 0.145332 0)
(1.05893 0.17442 0)
(1.08087 0.19657 0)
(1.10277 0.211925 0)
(1.12361 0.221004 0)
(1.14267 0.224567 0)
(1.15953 0.22348 0)
(1.17403 0.218631 0)
(1.18617 0.210858 0)
(1.19609 0.200913 0)
(1.204 0.189445 0)
(1.21016 0.176993 0)
(1.21482 0.163993 0)
(1.21826 0.150788 0)
(1.22071 0.13764 0)
(1.22239 0.124742 0)
(1.22349 0.11223 0)
(1.22419 0.100197 0)
(1.22461 0.0886962 0)
(1.22488 0.0777535 0)
(1.22508 0.0673727 0)
(1.22531 0.0575399 0)
(1.22561 0.0482284 0)
(1.22605 0.0394012 0)
(1.22666 0.0310136 0)
(1.22747 0.0230148 0)
(1.22851 0.0153494 0)
(1.22979 0.00795772 0)
(1.23133 0.000776446 0)
(1.23314 -0.00626121 0)
(1.23523 -0.0132257 0)
(1.23759 -0.0201912 0)
(1.24022 -0.0272362 0)
(1.24312 -0.0344434 0)
(1.24625 -0.0418997 0)
(1.24961 -0.0496965 0)
(1.25316 -0.0579276 0)
(1.25683 -0.0666885 0)
(1.26057 -0.0760722 0)
(1.26429 -0.0861648 0)
(1.26787 -0.0970389 0)
(1.2712 -0.108745 0)
(1.27412 -0.121299 0)
(1.27648 -0.134679 0)
(1.2781 -0.148805 0)
(1.27884 -0.163545 0)
(1.27859 -0.178713 0)
(1.00089 0.0199449 0)
(1.00633 0.0588875 0)
(1.01792 0.0950398 0)
(1.03402 0.126971 0)
(1.05314 0.15376 0)
(1.07404 0.174938 0)
(1.09557 0.190443 0)
(1.1168 0.200534 0)
(1.137 0.205705 0)
(1.15566 0.206583 0)
(1.17252 0.203853 0)
(1.18743 0.198203 0)
(1.20041 0.190276 0)
(1.21155 0.180651 0)
(1.22099 0.169831 0)
(1.22893 0.158236 0)
(1.23555 0.146212 0)
(1.24106 0.134032 0)
(1.24563 0.121909 0)
(1.24944 0.109999 0)
(1.25265 0.0984172 0)
(1.25538 0.0872388 0)
(1.25775 0.0765096 0)
(1.25986 0.0662511 0)
(1.26181 0.0564652 0)
(1.26365 0.0471384 0)
(1.26545 0.0382453 0)
(1.26726 0.0297509 0)
(1.26911 0.0216123 0)
(1.27105 0.0137811 0)
(1.2731 0.00620331 0)
(1.27528 -0.00117905 0)
(1.2776 -0.00842796 0)
(1.28007 -0.015609 0)
(1.2827 -0.0227913 0)
(1.2855 -0.0300474 0)
(1.28844 -0.0374531 0)
(1.29152 -0.045087 0)
(1.29471 -0.0530301 0)
(1.29797 -0.0613642 0)
(1.30127 -0.07017 0)
(1.30452 -0.0795238 0)
(1.30766 -0.0894937 0)
(1.31059 -0.100134 0)
(1.3132 -0.111477 0)
(1.31536 -0.123529 0)
(1.31694 -0.136261 0)
(1.3178 -0.1496 0)
(1.31784 -0.163434 0)
(1.31695 -0.17761 0)
(1.00077 0.0170034 0)
(1.00555 0.0504631 0)
(1.01588 0.081912 0)
(1.03048 0.110166 0)
(1.04816 0.134402 0)
(1.06794 0.154126 0)
(1.08886 0.169157 0)
(1.11006 0.179585 0)
(1.13084 0.185709 0)
(1.15069 0.187965 0)
(1.16924 0.18687 0)
(1.18627 0.182971 0)
(1.2017 0.176802 0)
(1.2155 0.168867 0)
(1.22775 0.159614 0)
(1.23854 0.149434 0)
(1.248 0.13866 0)
(1.25629 0.127562 0)
(1.26353 0.116358 0)
(1.26988 0.105217 0)
(1.27547 0.0942658 0)
(1.28042 0.0835956 0)
(1.28484 0.0732668 0)
(1.28883 0.0633151 0)
(1.29247 0.0537554 0)
(1.29585 0.0445863 0)
(1.29901 0.0357926 0)
(1.30203 0.0273486 0)
(1.30495 0.0192197 0)
(1.30781 0.0113645 0)
(1.31064 0.00373567 0)
(1.31346 -0.00371895 0)
(1.3163 -0.0110556 0)
(1.31918 -0.0183342 0)
(1.3221 -0.0256177 0)
(1.32507 -0.0329722 0)
(1.32808 -0.040466 0)
(1.33111 -0.0481691 0)
(1.33415 -0.0561524 0)
(1.33716 -0.0644863 0)
(1.34011 -0.0732383 0)
(1.34292 -0.0824709 0)
(1.34554 -0.0922373 0)
(1.34788 -0.102577 0)
(1.34984 -0.113512 0)
(1.35133 -0.125038 0)
(1.35222 -0.137125 0)
(1.35242 -0.149709 0)
(1.35183 -0.162693 0)
(1.35037 -0.175949 0)
(1.00067 0.014412 0)
(1.00492 0.0429569 0)
(1.01421 0.0700569 0)
(1.02752 0.0947398 0)
(1.04391 0.116289 0)
(1.06259 0.134229 0)
(1.08277 0.148322 0)
(1.10367 0.158551 0)
(1.12467 0.165076 0)
(1.14522 0.168191 0)
(1.16494 0.168274 0)
(1.18355 0.16575 0)
(1.20088 0.161052 0)
(1.21685 0.154604 0)
(1.23142 0.146797 0)
(1.24465 0.137983 0)
(1.25658 0.128466 0)
(1.26733 0.118505 0)
(1.27698 0.108314 0)
(1.28565 0.0980612 0)
(1.29344 0.0878806 0)
(1.30046 0.0778708 0)
(1.30682 0.0681017 0)
(1.31259 0.058619 0)
(1.31787 0.0494475 0)
(1.32272 0.0405954 0)
(1.32722 0.0320564 0)
(1.33142 0.023813 0)
(1.33538 0.0158383 0)
(1.33914 0.0080979 0)
(1.34274 0.000551017 0)
(1.3462 -0.00684818 0)
(1.34957 -0.0141498 0)
(1.35284 -0.0214075 0)
(1.35605 -0.0286778 0)
(1.35919 -0.0360197 0)
(1.36227 -0.0434938 0)
(1.36526 -0.0511616 0)
(1.36817 -0.0590845 0)
(1.37095 -0.0673222 0)
(1.37358 -0.0759309 0)
(1.37599 -0.0849608 0)
(1.37814 -0.0944533 0)
(1.37995 -0.104437 0)
(1.38133 -0.114924 0)
(1.38221 -0.125907 0)
(1.3825 -0.137354 0)
(1.3821 -0.149209 0)
(1.38095 -0.161387 0)
(1.37899 -0.173784 0)
(1.0006 0.0121022 0)
(1.00441 0.0362024 0)
(1.01285 0.0592703 0)
(1.02506 0.0805133 0)
(1.04031 0.0993217 0)
(1.05797 0.11526 0)
(1.07736 0.128075 0)
(1.09782 0.137685 0)
(1.11877 0.144161 0)
(1.13969 0.147689 0)
(1.16018 0.148539 0)
(1.17993 0.147032 0)
(1.19872 0.143514 0)
(1.21638 0.138331 0)
(1.23286 0.131817 0)
(1.24811 0.124276 0)
(1.26215 0.115981 0)
(1.27502 0.107169 0)
(1.28679 0.0980389 0)
(1.29752 0.0887551 0)
(1.3073 0.0794482 0)
(1.31621 0.0702188 0)
(1.32434 0.0611411 0)
(1.33176 0.052266 0)
(1.33856 0.0436252 0)
(1.3448 0.0352332 0)
(1.35054 0.0270909 0)
(1.35586 0.0191877 0)
(1.36081 0.0115032 0)
(1.36542 0.00400938 0)
(1.36975 -0.00332807 0)
(1.37383 -0.0105488 0)
(1.37768 -0.0176967 0)
(1.38134 -0.0248189 0)
(1.38481 -0.0319654 0)
(1.38812 -0.0391881 0)
(1.39126 -0.0465397 0)
(1.39422 -0.0540736 0)
(1.397 -0.0618422 0)
(1.39957 -0.0698954 0)
(1.4019 -0.0782795 0)
(1.40395 -0.0870345 0)
(1.40566 -0.0961918 0)
(1.40699 -0.105772 0)
(1.40785 -0.11578 0)
(1.40819 -0.126204 0)
(1.40793 -0.137016 0)
(1.407 -0.148163 0)
(1.40534 -0.159574 0)
(1.40291 -0.171159 0)
(1.00054 0.0100194 0)
(1.00401 0.0300626 0)
(1.01173 0.0493748 0)
(1.02303 0.0673158 0)
(1.0373 0.0833772 0)
(1.05403 0.0971764 0)
(1.07265 0.108468 0)
(1.0926 0.11714 0)
(1.11335 0.123205 0)
(1.13441 0.126773 0)
(1.15537 0.128032 0)
(1.17592 0.12722 0)
(1.19578 0.124604 0)
(1.21476 0.120464 0)
(1.23275 0.115074 0)
(1.24965 0.108692 0)
(1.26544 0.101554 0)
(1.28011 0.0938699 0)
(1.29368 0.0858186 0)
(1.3062 0.0775512 0)
(1.31772 0.0691903 0)
(1.3283 0.0608329 0)
(1.33801 0.0525522 0)
(1.34691 0.0444005 0)
(1.35507 0.0364122 0)
(1.36257 0.028606 0)
(1.36945 0.0209873 0)
(1.37579 0.0135506 0)
(1.38163 0.00628092 0)
(1.38703 -0.0008441 0)
(1.39202 -0.00785316 0)
(1.39665 -0.01478 0)
(1.40095 -0.0216624 0)
(1.40495 -0.0285412 0)
(1.40866 -0.0354598 0)
(1.4121 -0.042463 0)
(1.41529 -0.0495963 0)
(1.41821 -0.056905 0)
(1.42086 -0.064433 0)
(1.42322 -0.0722219 0)
(1.42527 -0.0803087 0)
(1.42697 -0.0887249 0)
(1.42829 -0.0974938 0)
(1.42917 -0.106629 0)
(1.42956 -0.11613 0)
(1.42941 -0.125985 0)
(1.42865 -0.136164 0)
(1.42724 -0.146622 0)
(1.42512 -0.157296 0)
(1.42225 -0.16811 0)
(1.00049 0.00811865 0)
(1.00368 0.0244222 0)
(1.01084 0.0402146 0)
(1.02138 0.0549866 0)
(1.03481 0.0683232 0)
(1.05073 0.0799002 0)
(1.06865 0.0894948 0)
(1.08808 0.0969882 0)
(1.10854 0.102358 0)
(1.12958 0.105663 0)
(1.15081 0.10703 0)
(1.17188 0.106631 0)
(1.19252 0.104668 0)
(1.2125 0.101361 0)
(1.23166 0.096929 0)
(1.24987 0.0915841 0)
(1.26708 0.0855239 0)
(1.28322 0.0789263 0)
(1.2983 0.0719472 0)
(1.31232 0.0647193 0)
(1.32532 0.0573523 0)
(1.33732 0.0499343 0)
(1.34839 0.0425334 0)
(1.35857 0.0351994 0)
(1.36792 0.027966 0)
(1.37651 0.0208532 0)
(1.38439 0.0138687 0)
(1.39161 0.00701026 0)
(1.39824 0.000266986 0)
(1.40431 -0.00637904 0)
(1.40988 -0.0129515 0)
(1.41499 -0.0194789 0)
(1.41966 -0.0259933 0)
(1.42394 -0.0325296 0)
(1.42784 -0.0391247 0)
(1.43139 -0.0458168 0)
(1.43459 -0.0526441 0)
(1.43744 -0.0596447 0)
(1.43995 -0.0668549 0)
(1.44211 -0.074308 0)
(1.44388 -0.0820336 0)
(1.44526 -0.0900555 0)
(1.4462 -0.0983902 0)
(1.44666 -0.107045 0)
(1.44662 -0.116018 0)
(1.44601 -0.125294 0)
(1.44479 -0.134844 0)
(1.44293 -0.144628 0)
(1.44038 -0.15459 0)
(1.43712 -0.164667 0)
(1.00045 0.00636276 0)
(1.00342 0.0191824 0)
(1.01012 0.0316519 0)
(1.02005 0.0433753 0)
(1.0328 0.0540234 0)
(1.04803 0.063332 0)
(1.06534 0.0711107 0)
(1.08428 0.0772471 0)
(1.10443 0.0817028 0)
(1.12537 0.0845049 0)
(1.1467 0.085734 0)
(1.16811 0.0855118 0)
(1.18929 0.0839874 0)
(1.20999 0.0813262 0)
(1.23003 0.0776986 0)
(1.24926 0.0732726 0)
(1.26757 0.0682067 0)
(1.28489 0.062646 0)
(1.30117 0.0567193 0)
(1.31641 0.0505376 0)
(1.33061 0.0441939 0)
(1.34378 0.0377638 0)
(1.35597 0.0313061 0)
(1.36721 0.024865 0)
(1.37755 0.0184705 0)
(1.38704 0.0121413 0)
(1.39575 0.00588523 0)
(1.4037 -0.000298464 0)
(1.41097 -0.00641811 0)
(1.4176 -0.0124882 0)
(1.42364 -0.0185285 0)
(1.42912 -0.0245626 0)
(1.43409 -0.0306176 0)
(1.43858 -0.0367228 0)
(1.4426 -0.042909 0)
(1.4462 -0.0492081 0)
(1.44937 -0.0556518 0)
(1.45213 -0.0622712 0)
(1.45448 -0.0690953 0)
(1.45641 -0.0761506 0)
(1.45791 -0.0834597 0)
(1.45896 -0.0910399 0)
(1.45953 -0.098902 0)
(1.45961 -0.107049 0)
(1.45914 -0.115475 0)
(1.45811 -0.124164 0)
(1.45647 -0.133089 0)
(1.45419 -0.142213 0)
(1.45124 -0.151487 0)
(1.44761 -0.160854 0)
(1.00042 0.00471967 0)
(1.00323 0.0142571 0)
(1.00957 0.023563 0)
(1.01902 0.0323409 0)
(1.03123 0.0403412 0)
(1.0459 0.047359 0)
(1.06269 0.0532419 0)
(1.08121 0.0578936 0)
(1.10106 0.0612727 0)
(1.12185 0.0633868 0)
(1.14321 0.0642855 0)
(1.16481 0.0640504 0)
(1.18634 0.062787 0)
(1.20755 0.0606146 0)
(1.22823 0.0576593 0)
(1.2482 0.0540468 0)
(1.26733 0.0498976 0)
(1.28554 0.0453233 0)
(1.30274 0.0404237 0)
(1.31892 0.0352856 0)
(1.33404 0.0299825 0)
(1.34812 0.0245742 0)
(1.36118 0.0191079 0)
(1.37324 0.0136185 0)
(1.38435 0.00813056 0)
(1.39455 0.0026587 0)
(1.40388 -0.00279078 0)
(1.4124 -0.00821884 0)
(1.42016 -0.0136326 0)
(1.4272 -0.0190442 0)
(1.43357 -0.0244702 0)
(1.43932 -0.0299303 0)
(1.44448 -0.0354469 0)
(1.44908 -0.0410443 0)
(1.45316 -0.0467478 0)
(1.45673 -0.0525833 0)
(1.45983 -0.0585764 0)
(1.46245 -0.0647517 0)
(1.4646 -0.0711319 0)
(1.46628 -0.077737 0)
(1.46749 -0.0845834 0)
(1.46822 -0.0916827 0)
(1.46843 -0.0990409 0)
(1.46812 -0.106657 0)
(1.46726 -0.114523 0)
(1.46582 -0.122621 0)
(1.46378 -0.130925 0)
(1.46111 -0.139402 0)
(1.45778 -0.148008 0)
(1.45379 -0.156692 0)
(1.0004 0.00316129 0)
(1.00308 0.0095695 0)
(1.00917 0.0158348 0)
(1.01826 0.0217506 0)
(1.03006 0.0271413 0)
(1.04431 0.0318605 0)
(1.0607 0.0357964 0)
(1.07888 0.0388756 0)
(1.09847 0.0410618 0)
(1.11911 0.0423532 0)
(1.14044 0.0427775 0)
(1.16213 0.0423859 0)
(1.18387 0.0412468 0)
(1.20541 0.0394402 0)
(1.2265 0.0370514 0)
(1.24698 0.0341666 0)
(1.26668 0.0308695 0)
(1.2855 0.0272375 0)
(1.30335 0.0233409 0)
(1.32018 0.0192406 0)
(1.33597 0.0149882 0)
(1.35069 0.010626 0)
(1.36436 0.00618675 0)
(1.377 0.00169468 0)
(1.38864 -0.00283389 0)
(1.39932 -0.00738972 0)
(1.40908 -0.0119699 0)
(1.41798 -0.0165768 0)
(1.42605 -0.0212175 0)
(1.43335 -0.0259028 0)
(1.43991 -0.0306469 0)
(1.44579 -0.0354662 0)
(1.45103 -0.040379 0)
(1.45565 -0.045405 0)
(1.45969 -0.0505645 0)
(1.46317 -0.0558778 0)
(1.46612 -0.0613649 0)
(1.46855 -0.0670445 0)
(1.47047 -0.0729333 0)
(1.47188 -0.0790457 0)
(1.47278 -0.0853924 0)
(1.47316 -0.09198 0)
(1.47302 -0.0988103 0)
(1.47233 -0.105879 0)
(1.47108 -0.113175 0)
(1.46925 -0.120681 0)
(1.46681 -0.128371 0)
(1.46376 -0.136215 0)
(1.46008 -0.144171 0)
(1.45575 -0.152196 0)
(1.00039 0.00166228 0)
(1.00299 0.00504922 0)
(1.0089 0.00836229 0)
(1.01776 0.011478 0)
(1.02928 0.0142907 0)
(1.04324 0.0167112 0)
(1.05935 0.0186704 0)
(1.07728 0.0201212 0)
(1.09668 0.0210382 0)
(1.11719 0.0214165 0)
(1.13846 0.0212685 0)
(1.16017 0.0206209 0)
(1.18201 0.0195112 0)
(1.20372 0.0179836 0)
(1.22505 0.016086 0)
(1.24582 0.0138675 0)
(1.26585 0.0113754 0)
(1.28504 0.00865374 0)
(1.30327 0.00574224 0)
(1.32049 0.00267516 0)
(1.33665 -0.000518887 0)
(1.35175 -0.00381713 0)
(1.36577 -0.00720244 0)
(1.37873 -0.0106631 0)
(1.39067 -0.0141921 0)
(1.40161 -0.0177873 0)
(1.41159 -0.02145 0)
(1.42066 -0.0251853 0)
(1.42886 -0.029001 0)
(1.43624 -0.0329075 0)
(1.44285 -0.036917 0)
(1.44873 -0.0410432 0)
(1.45391 -0.0453009 0)
(1.45844 -0.0497056 0)
(1.46235 -0.0542729 0)
(1.46566 -0.0590182 0)
(1.46839 -0.0639561 0)
(1.47057 -0.0690998 0)
(1.47221 -0.0744608 0)
(1.47331 -0.0800481 0)
(1.47387 -0.0858675 0)
(1.4739 -0.0919212 0)
(1.47338 -0.0982069 0)
(1.47231 -0.104717 0)
(1.47068 -0.11144 0)
(1.46846 -0.118356 0)
(1.46565 -0.125441 0)
(1.46223 -0.132665 0)
(1.4582 -0.139992 0)
(1.45354 -0.14738 0)
(1.00038 0.000199152 0)
(1.00294 0.000630541 0)
(1.00876 0.001046 0)
(1.01749 0.00140117 0)
(1.02887 0.00165793 0)
(1.04267 0.00178368 0)
(1.05862 0.00175252 0)
(1.07641 0.00154587 0)
(1.09568 0.00115243 0)
(1.1161 0.000567592 0)
(1.13732 -0.000207422 0)
(1.159 -0.00116674 0)
(1.18085 -0.00230103 0)
(1.2026 -0.00359876 0)
(1.224 -0.00504731 0)
(1.24486 -0.00663394 0)
(1.265 -0.00834659 0)
(1.2843 -0.0101745 0)
(1.30266 -0.0121088 0)
(1.32 -0.0141423 0)
(1.33628 -0.0162703 0)
(1.35148 -0.0184902 0)
(1.36559 -0.0208015 0)
(1.37863 -0.0232059 0)
(1.39061 -0.0257069 0)
(1.40157 -0.0283096 0)
(1.41155 -0.0310209 0)
(1.42059 -0.033849 0)
(1.42873 -0.036803 0)
(1.43603 -0.0398932 0)
(1.44252 -0.0431305 0)
(1.44824 -0.0465263 0)
(1.45325 -0.0500922 0)
(1.45757 -0.0538398 0)
(1.46124 -0.0577806 0)
(1.46429 -0.061925 0)
(1.46674 -0.0662829 0)
(1.46861 -0.0708625 0)
(1.46991 -0.0756703 0)
(1.47066 -0.0807105 0)
(1.47086 -0.0859845 0)
(1.47051 -0.0914904 0)
(1.46961 -0.0972224 0)
(1.46815 -0.103171 0)
(1.46612 -0.109321 0)
(1.46353 -0.115654 0)
(1.46035 -0.122145 0)
(1.45657 -0.128765 0)
(1.4522 -0.135481 0)
(1.44723 -0.142256 0)
(1.00038 -0.00125054 0)
(1.00293 -0.0037497 0)
(1.00874 -0.00621039 0)
(1.01746 -0.00859914 0)
(1.02882 -0.0108872 0)
(1.04259 -0.013051 0)
(1.05852 -0.0150729 0)
(1.07627 -0.0169422 0)
(1.0955 -0.0186552 0)
(1.11586 -0.020215 0)
(1.13702 -0.0216302 0)
(1.15864 -0.0229147 0)
(1.18042 -0.0240861 0)
(1.20209 -0.0251647 0)
(1.2234 -0.0261726 0)
(1.24416 -0.0271327 0)
(1.26419 -0.0280681 0)
(1.28338 -0.0290014 0)
(1.3016 -0.0299542 0)
(1.31881 -0.0309471 0)
(1.33494 -0.0319992 0)
(1.34998 -0.0331284 0)
(1.36392 -0.0343512 0)
(1.37677 -0.035683 0)
(1.38855 -0.0371378 0)
(1.39931 -0.0387289 0)
(1.40906 -0.0404684 0)
(1.41786 -0.0423681 0)
(1.42576 -0.0444387 0)
(1.43278 -0.0466905 0)
(1.43899 -0.0491334 0)
(1.44443 -0.0517766 0)
(1.44912 -0.0546288 0)
(1.45312 -0.057698 0)
(1.45645 -0.0609915 0)
(1.45915 -0.0645155 0)
(1.46123 -0.0682753 0)
(1.46273 -0.0722744 0)
(1.46365 -0.0765148 0)
(1.46401 -0.0809963 0)
(1.46381 -0.0857161 0)
(1.46305 -0.0906688 0)
(1.46175 -0.0958455 0)
(1.4599 -0.101234 0)
(1.45748 -0.106818 0)