/*--------------------------------*- C++ -*----------------------------------*\
| =========                 |                                                 |
| \\      /  F ield         | OpenFOAM: The Open Source CFD Toolbox           |
|  \\    /   O peration     | Version:  2306                                  |
|   \\  /    A nd           | Website:  www.openfoam.com                      |
|    \\/     M anipulation  |                                                 |
\*---------------------------------------------------------------------------*/
FoamFile
{
    version     2.0;
    format      ascii;
    arch        "LSB;label=32;scalar=64";
    class       surfaceScalarField;
    location    "4.57";
    object      phi;
}
// * * * * * * * * * * * * * * * * * * * * * * * * * * * * * * * * * * * * * //

dimensions      [0 3 -1 0 0 0 0];

oriented        oriented;

internalField   nonuniform List<scalar> 
3680
(
4.93469e-05
6.53079e-07
4.79741e-05
1.37282e-06
4.66977e-05
1.27645e-06
4.52605e-05
1.43712e-06
4.41224e-05
1.13817e-06
4.27185e-05
1.40387e-06
4.17342e-05
9.84288e-07
4.04326e-05
1.30161e-06
3.98001e-05
6.32452e-07
9.87215e-07
3.88129e-05
5.03392e-05
3.1386e-07
5.08678e-05
8.44262e-07
5.1132e-05
1.01218e-06
5.1465e-05
1.10414e-06
5.15925e-05
1.01072e-06
5.19753e-05
1.021e-06
5.20604e-05
8.99243e-07
5.25115e-05
8.50525e-07
5.25055e-05
6.38437e-07
4.3242e-07
5.30603e-05
5.01633e-05
1.50578e-07
5.05553e-05
4.52208e-07
5.09758e-05
5.91686e-07
5.14194e-05
6.60597e-07
5.18164e-05
6.1369e-07
5.22673e-05
5.70083e-07
5.26943e-05
4.72231e-07
5.31633e-05
3.81599e-07
5.35801e-05
2.21638e-07
1.27906e-08
5.39997e-05
5.00932e-05
5.7359e-08
5.03763e-05
1.69085e-07
5.0734e-05
2.34058e-07
5.1146e-05
2.48605e-07
5.15495e-05
2.10174e-07
5.19719e-05
1.4768e-07
5.23829e-05
6.12561e-08
5.28114e-05
-4.6907e-08
5.32215e-05
-1.88511e-07
-3.58076e-07
5.35924e-05
5.00738e-05
-1.64308e-08
5.02912e-05
-4.83579e-08
5.0611e-05
-8.57318e-08
5.09886e-05
-1.28973e-07
5.13801e-05
-1.81297e-07
5.1774e-05
-2.46277e-07
5.21648e-05
-3.29491e-07
5.2551e-05
-4.33114e-07
5.29205e-05
-5.58052e-07
-7.03903e-07
5.32664e-05
5.00732e-05
-8.95942e-08
5.02829e-05
-2.58097e-07
5.05977e-05
-4.0054e-07
5.09652e-05
-4.96421e-07
5.13442e-05
-5.6035e-07
5.17213e-05
-6.23406e-07
5.20911e-05
-6.99219e-07
5.2452e-05
-7.94049e-07
5.28015e-05
-9.07519e-07
-1.03535e-06
5.31329e-05
5.00942e-05
-1.83789e-07
5.03556e-05
-5.19455e-07
5.06982e-05
-7.4317e-07
5.10681e-05
-8.66333e-07
5.14404e-05
-9.32685e-07
5.18042e-05
-9.87134e-07
5.21608e-05
-1.05585e-06
5.2512e-05
-1.14527e-06
5.28527e-05
-1.2482e-06
-1.35652e-06
5.31739e-05
5.01665e-05
-3.50261e-07
5.0518e-05
-8.70989e-07
5.09207e-05
-1.14591e-06
5.12995e-05
-1.24509e-06
5.16483e-05
-1.28146e-06
5.19856e-05
-1.32445e-06
5.23194e-05
-1.38963e-06
5.26407e-05
-1.46654e-06
5.29356e-05
-1.54317e-06
-1.61405e-06
5.31932e-05
5.03676e-05
-7.17872e-07
5.08004e-05
-1.30378e-06
5.10991e-05
-1.44461e-06
5.12766e-05
-1.42257e-06
5.14051e-05
-1.41001e-06
5.15038e-05
-1.42313e-06
5.15552e-05
-1.44101e-06
5.15426e-05
-1.45397e-06
5.14578e-05
-1.45835e-06
-1.45752e-06
5.13013e-05
4.92821e-05
4.79784e-05
4.65337e-05
4.51112e-05
4.37012e-05
4.2278e-05
4.0837e-05
3.93831e-05
3.79247e-05
3.64672e-05
1.44077e-08
-1.44077e-08
1.09771e-08
3.43069e-09
-7.54093e-09
1.85181e-08
-3.57791e-08
2.82382e-08
-7.09768e-08
3.51977e-08
-1.11826e-07
4.08496e-08
-1.57918e-07
4.60913e-08
-2.08989e-07
5.10711e-08
-2.64745e-07
5.57564e-08
-3.24855e-07
6.01097e-08
-3.88959e-07
6.4104e-08
-4.56687e-07
6.7728e-08
-5.2767e-07
7.09832e-08
-6.01549e-07
7.38789e-08
-6.7798e-07
7.64311e-08
-7.5664e-07
7.86602e-08
-8.37231e-07
8.05906e-08
-9.1948e-07
8.22491e-08
-1.00315e-06
8.36656e-08
-1.08803e-06
8.48815e-08
-1.17398e-06
8.59487e-08
-1.2609e-06
8.69268e-08
-1.34878e-06
8.78803e-08
-1.43766e-06
8.8877e-08
-1.52765e-06
8.99895e-08
-1.61895e-06
9.12961e-08
-1.71182e-06
9.28781e-08
-1.80664e-06
9.48118e-08
-1.9038e-06
9.71639e-08
-2.00379e-06
9.99912e-08
-2.10713e-06
1.03339e-07
-2.21438e-06
1.07251e-07
-2.32618e-06
1.118e-07
-2.44333e-06
1.17145e-07
-2.56691e-06
1.23588e-07
-2.69849e-06
1.31571e-07
-2.84019e-06
1.41706e-07
-2.99501e-06
1.54815e-07
-3.1669e-06
1.71894e-07
-3.36095e-06
1.94053e-07
-3.5833e-06
2.22351e-07
-3.84078e-06
2.57479e-07
-4.14011e-06
2.99325e-07
-4.48671e-06
3.46598e-07
-4.88326e-06
3.9655e-07
-5.3283e-06
4.45045e-07
-5.81537e-06
4.87067e-07
-6.33282e-06
5.17452e-07
-6.86419e-06
5.31368e-07
-7.38935e-06
5.25159e-07
-7.88655e-06
4.97202e-07
-8.33409e-06
4.47537e-07
-8.71122e-06
3.77129e-07
-8.99889e-06
2.87678e-07
-9.18497e-06
1.86071e-07
-9.25681e-06
7.18447e-08
-9.20699e-06
-4.98172e-08
-9.0373e-06
-1.69694e-07
-8.74621e-06
-2.91084e-07
-8.3366e-06
-4.09613e-07
-7.81412e-06
-5.22486e-07
-7.19107e-06
-6.23043e-07
-6.47523e-06
-7.1584e-07
-5.67951e-06
-7.95723e-07
-4.81687e-06
-8.62642e-07
-3.90041e-06
-9.16461e-07
-2.9428e-06
-9.57609e-07
-1.96061e-06
-9.82187e-07
-9.671e-07
-9.9351e-07
2.75287e-08
-9.94628e-07
1.01076e-06
-9.83227e-07
1.97474e-06
-9.63981e-07
2.90791e-06
-9.33176e-07
3.80636e-06
-8.98446e-07
4.66026e-06
-8.53906e-07
5.46993e-06
-8.09664e-07
6.22725e-06
-7.57321e-07
6.93683e-06
-7.09578e-07
7.59139e-06
-6.54559e-07
8.19947e-06
-6.08088e-07
8.7547e-06
-5.55226e-07
9.26949e-06
-5.14787e-07
9.73721e-06
-4.67726e-07
1.01745e-05
-4.37255e-07
1.05726e-05
-3.98133e-07
1.09527e-05
-3.80132e-07
1.13051e-05
-3.52392e-07
1.16559e-05
-3.50792e-07
1.19925e-05
-3.36572e-07
-3.65209e-07
-1.07938e-08
-3.61395e-09
-6.43305e-08
5.69674e-08
-1.47765e-07
1.01953e-07
-2.53099e-07
1.33572e-07
-3.75462e-07
1.57561e-07
-5.12491e-07
1.77878e-07
-6.62532e-07
1.96132e-07
-8.24113e-07
2.12653e-07
-9.95845e-07
2.27488e-07
-1.1764e-06
2.40661e-07
-1.3645e-06
2.52205e-07
-1.55895e-06
2.62179e-07
-1.75863e-06
2.70669e-07
-1.96254e-06
2.77789e-07
-2.16978e-06
2.83667e-07
-2.37957e-06
2.88448e-07
-2.59126e-06
2.92281e-07
-2.80434e-06
2.95327e-07
-3.01842e-06
2.97752e-07
-3.23328e-06
2.99745e-07
-3.44885e-06
3.01519e-07
-3.66523e-06
3.03299e-07
-3.88267e-06
3.05319e-07
-4.1016e-06
3.07808e-07
-4.32261e-06
3.11005e-07
-4.54647e-06
3.15152e-07
-4.77409e-06
3.20496e-07
-5.00653e-06
3.2726e-07
-5.24501e-06
3.35642e-07
-5.49083e-06
3.45808e-07
-5.74538e-06
3.57891e-07
-6.01013e-06
3.71999e-07
-6.28658e-06
3.88245e-07
-6.57627e-06
4.06836e-07
-6.88081e-06
4.28128e-07
-7.20179e-06
4.52556e-07
-7.54064e-06
4.80552e-07
-7.89843e-06
5.1261e-07
-8.27566e-06
5.49126e-07
-8.67191e-06
5.90294e-07
-9.08545e-06
6.35899e-07
-9.51299e-06
6.85015e-07
-9.94913e-06
7.35463e-07
-1.0386e-05
7.83509e-07
-1.08134e-05
8.23957e-07
-1.12188e-05
8.50402e-07
-1.15878e-05
8.56112e-07
-1.19058e-05
8.35407e-07
-1.21577e-05
7.83316e-07
-1.23288e-05
6.96174e-07
-1.2405e-05
5.73433e-07
-1.23757e-05
4.18204e-07
-1.22304e-05
2.31868e-07
-1.19535e-05
1.07309e-08
-1.15587e-05
-2.08705e-07
-1.10407e-05
-4.46126e-07
-1.03977e-05
-6.92777e-07
-9.62918e-06
-9.38262e-07
-8.74144e-06
-1.17883e-06
-7.74288e-06
-1.40818e-06
-6.64058e-06
-1.62478e-06
-5.44917e-06
-1.81445e-06
-4.17862e-06
-1.9864e-06
-2.8423e-06
-2.13204e-06
-1.45344e-06
-2.25151e-06
-2.53244e-08
-2.34457e-06
1.42265e-06
-2.40558e-06
2.8841e-06
-2.44364e-06
4.34633e-06
-2.45574e-06
5.79691e-06
-2.44521e-06
7.22499e-06
-2.4113e-06
8.62174e-06
-2.36074e-06
9.97869e-06
-2.29013e-06
1.129e-05
-2.20972e-06
1.25495e-05
-2.11345e-06
1.37545e-05
-2.01465e-06
1.49012e-05
-1.90405e-06
1.59896e-05
-1.79794e-06
1.70183e-05
-1.68329e-06
1.79899e-05
-1.5797e-06
1.89046e-05
-1.46991e-06
1.97672e-05
-1.37738e-06
2.05791e-05
-1.27966e-06
2.13471e-05
-1.2052e-06
2.20741e-05
-1.12516e-06
2.2769e-05
-1.07498e-06
2.34343e-05
-1.01768e-06
2.40821e-05
-9.98605e-07
2.47136e-05
-9.68095e-07
-9.80347e-07
-5.0023e-08
4.64091e-08
-1.86482e-07
1.93426e-07
-3.68942e-07
2.84414e-07
-5.78558e-07
3.43187e-07
-8.06447e-07
3.8545e-07
-1.05013e-06
4.21566e-07
-1.30802e-06
4.54017e-07
-1.57756e-06
4.82193e-07
-1.85615e-06
5.06077e-07
-2.14136e-06
5.25878e-07
-2.43103e-06
5.41865e-07
-2.72321e-06
5.54361e-07
-3.01628e-06
5.6374e-07
-3.30888e-06
5.70393e-07
-3.59993e-06
5.74714e-07
-3.88857e-06
5.77091e-07
-4.17419e-06
5.77896e-07
-4.45636e-06
5.77499e-07
-4.73482e-06
5.76209e-07
-5.00947e-06
5.74395e-07
-5.28039e-06
5.72443e-07
-5.54781e-06
5.7072e-07
-5.81206e-06
5.69568e-07
-6.07356e-06
5.69302e-07
-6.33276e-06
5.70207e-07
-6.59016e-06
5.72554e-07
-6.84626e-06
5.76593e-07
-7.10151e-06
5.82511e-07
-7.35627e-06
5.90406e-07
-7.61077e-06
6.00303e-07
-7.86502e-06
6.12142e-07
-8.1188e-06
6.25784e-07
-8.37158e-06
6.41024e-07
-8.62239e-06
6.57649e-07
-8.87002e-06
6.75751e-07
-9.11283e-06
6.9537e-07
-9.34854e-06
7.1626e-07
-9.57419e-06
7.38262e-07
-9.78604e-06
7.60976e-07
-9.9794e-06
7.83651e-07
-1.01486e-05
8.05056e-07
-1.02871e-05
8.23535e-07
-1.03873e-05
8.35673e-07
-1.04408e-05
8.37071e-07
-1.04391e-05
8.22178e-07
-1.03732e-05
7.84505e-07
-1.02341e-05
7.17086e-07
-1.00146e-05
6.15866e-07
-9.70906e-06
4.77772e-07
-9.31305e-06
3.00171e-07
-8.81947e-06
7.98501e-08
-8.2309e-06
-1.7037e-07
-7.54667e-06
-4.52355e-07
-6.77476e-06
-7.61185e-07
-5.89562e-06
-1.08785e-06
-4.9206e-06
-1.42114e-06
-3.85546e-06
-1.75791e-06
-2.70587e-06
-2.08786e-06
-1.47704e-06
-2.40765e-06
-1.75199e-07
-2.71002e-06
1.18455e-06
-2.98452e-06
2.59947e-06
-3.22938e-06
4.05876e-06
-3.44569e-06
5.54931e-06
-3.62258e-06
7.0637e-06
-3.7659e-06
8.58727e-06
-3.86815e-06
1.0116e-05
-3.93433e-06
1.16337e-05
-3.96131e-06
1.31333e-05
-3.95537e-06
1.4604e-05
-3.91585e-06
1.60397e-05
-3.84701e-06
1.74316e-05
-3.75264e-06
1.87764e-05
-3.63499e-06
2.00678e-05
-3.5011e-06
2.13049e-05
-3.35056e-06
2.24837e-05
-3.19341e-06
2.36055e-05
-3.02588e-06
2.46685e-05
-2.86092e-06
2.56759e-05
-2.69075e-06
2.66278e-05
-2.53151e-06
2.75286e-05
-2.37072e-06
2.83797e-05
-2.22853e-06
2.91869e-05
-2.08682e-06
2.99528e-05
-1.97109e-06
3.06838e-05
-1.85616e-06
3.13837e-05
-1.77488e-06
3.20591e-05
-1.69312e-06
3.27139e-05
-1.65342e-06
3.33548e-05
-1.60895e-06
-1.62065e-06
-1.38346e-07
1.84755e-07
-3.92555e-07
4.47635e-07
-6.86257e-07
5.78116e-07
-9.97329e-07
6.54259e-07
-1.32357e-06
7.11695e-07
-1.6622e-06
7.6019e-07
-2.00817e-06
7.99992e-07
-2.35677e-06
8.30789e-07
-2.70397e-06
8.53279e-07
-3.04675e-06
8.68657e-07
-3.38265e-06
8.77763e-07
-3.70977e-06
8.81483e-07
-4.02677e-06
8.80737e-07
-4.33271e-06
8.76332e-07
-4.62698e-06
8.68987e-07
-4.90923e-06
8.59347e-07
-5.17932e-06
8.47977e-07
-5.43718e-06
8.35366e-07
-5.68293e-06
8.21958e-07
-5.91673e-06
8.0819e-07
-6.13876e-06
7.94477e-07
-6.34923e-06
7.81189e-07
-6.54831e-06
7.68648e-07
-6.73611e-06
7.57104e-07
-6.91264e-06
7.46739e-07
-7.07779e-06
7.37697e-07
-7.2313e-06
7.30101e-07
-7.37278e-06
7.23998e-07
-7.50164e-06
7.19267e-07
-7.61703e-06
7.15694e-07
-7.71785e-06
7.1296e-07
-7.8027e-06
7.10635e-07
-7.86987e-06
7.0819e-07
-7.91725e-06
7.05026e-07
-7.94224e-06
7.00748e-07
-7.94217e-06
6.95299e-07
-7.91371e-06
6.87796e-07
-7.85304e-06
6.77588e-07
-7.75579e-06
6.63732e-07
-7.61709e-06
6.4495e-07
-7.4314e-06
6.1936e-07
-7.19232e-06
5.84461e-07
-6.89451e-06
5.3786e-07
-6.53271e-06
4.75268e-07
-6.10186e-06
3.91333e-07
-5.59837e-06
2.81013e-07
-5.01796e-06
1.36679e-07
-4.35847e-06
-4.36286e-08
-3.62334e-06
-2.5736e-07
-2.81158e-06
-5.1158e-07
-1.92628e-06
-8.05454e-07
-9.64699e-07
-1.13195e-06
7.12283e-08
-1.48828e-06
1.17681e-06
-1.86677e-06
2.34792e-06
-2.25896e-06
3.5817e-06
-2.65492e-06
4.87549e-06
-3.05171e-06
6.22321e-06
-3.43557e-06
7.62074e-06
-3.80518e-06
9.05771e-06
-4.14699e-06
1.05331e-05
-4.45995e-06
1.20341e-05
-4.73037e-06
1.3554e-05
-4.96559e-06
1.50824e-05
-5.1509e-06
1.66109e-05
-5.29441e-06
1.81282e-05
-5.38551e-06
1.96279e-05
-5.43399e-06
2.10989e-05
-5.43228e-06
2.25353e-05
-5.39178e-06
2.39279e-05
-5.30843e-06
2.52736e-05
-5.19274e-06
2.65649e-05
-5.04393e-06
2.78014e-05
-4.87149e-06
2.89776e-05
-4.67732e-06
3.00957e-05
-4.46862e-06
3.1152e-05
-4.24975e-06
3.21507e-05
-4.02462e-06
3.309e-05
-3.80015e-06
3.39753e-05
-3.57613e-06
3.48062e-05
-3.3624e-06
3.55894e-05
-3.15389e-06
3.63251e-05
-2.96423e-06
3.70209e-05
-2.78267e-06
3.76776e-05
-2.62778e-06
3.83035e-05
-2.48206e-06
3.88992e-05
-2.37057e-06
3.94739e-05
-2.26779e-06
4.00278e-05
-2.20733e-06
4.05734e-05
-2.1546e-06
-2.15653e-06
-1.95525e-07
3.8028e-07
-5.66425e-07
8.18535e-07
-9.84838e-07
9.96529e-07
-1.4126e-06
1.08202e-06
-1.83348e-06
1.13257e-06
-2.23877e-06
1.16548e-06
-2.62473e-06
1.18596e-06
-2.99027e-06
1.19632e-06
-3.33362e-06
1.19663e-06
-3.65331e-06
1.18835e-06
-3.9487e-06
1.17315e-06
-4.21969e-06
1.15247e-06
-4.46655e-06
1.12761e-06
-4.68986e-06
1.09964e-06
-4.89033e-06
1.06946e-06
-5.06877e-06
1.03779e-06
-5.22602e-06
1.00522e-06
-5.36284e-06
9.72191e-07
-5.47993e-06
9.39044e-07
-5.57789e-06
9.0615e-07
-5.65723e-06
8.73819e-07
-5.71833e-06
8.42285e-07
-5.7614e-06
8.1172e-07
-5.7865e-06
7.82202e-07
-5.79345e-06
7.53697e-07
-5.78188e-06
7.26122e-07
-5.75118e-06
6.99407e-07
-5.70065e-06
6.73466e-07
-5.62931e-06
6.47924e-07
-5.53594e-06
6.22329e-07
-5.41911e-06
5.96128e-07
-5.27712e-06
5.68642e-07
-5.10801e-06
5.39082e-07
-4.90952e-06
5.06538e-07
-4.67861e-06
4.69836e-07
-4.41294e-06
4.29629e-07
-4.10926e-06
3.84121e-07
-3.764e-06
3.32324e-07
-3.37319e-06
2.72922e-07
-2.93252e-06
2.04283e-07
-2.43735e-06
1.24192e-07
-1.88183e-06
2.89322e-08
-1.26468e-06
-7.92857e-08
-5.82413e-07
-2.06998e-07
1.67949e-07
-3.5903e-07
9.89084e-07
-5.40122e-07
1.87895e-06
-7.53188e-07
2.83549e-06
-1.00017e-06
3.86115e-06
-1.28302e-06
4.9512e-06
-1.60162e-06
6.10175e-06
-1.95601e-06
7.30903e-06
-2.33922e-06
8.56961e-06
-2.74887e-06
9.87785e-06
-3.17501e-06
1.12324e-05
-3.61347e-06
1.2628e-05
-4.05053e-06
1.40605e-05
-4.48426e-06
1.55236e-05
-4.89865e-06
1.70115e-05
-5.29309e-06
1.85154e-05
-5.65086e-06
2.00293e-05
-5.97382e-06
2.15441e-05
-6.2452e-06
2.30504e-05
-6.47194e-06
2.45394e-05
-6.63985e-06
2.6003e-05
-6.75806e-06
2.74325e-05
-6.81495e-06
2.88216e-05
-6.82309e-06
3.01629e-05
-6.77356e-06
3.14525e-05
-6.68139e-06
3.26843e-05
-6.54022e-06
3.38576e-05
-6.36605e-06
3.4968e-05
-6.15434e-06
3.60176e-05
-5.92108e-06
3.70034e-05
-5.66312e-06
3.79298e-05
-5.39511e-06
3.8795e-05
-5.1149e-06
3.96052e-05
-4.83485e-06
4.03589e-05
-4.55384e-06
4.1064e-05
-4.28123e-06
4.17189e-05
-4.01727e-06
4.23328e-05
-3.76777e-06
4.29035e-05
-3.53499e-06
4.34416e-05
-3.3207e-06
4.39438e-05
-3.13005e-06
4.44219e-05
-2.96017e-06
4.48716e-05
-2.82023e-06
4.53058e-05
-2.70201e-06
4.57188e-05
-2.62031e-06
4.6125e-05
-2.56076e-06
-2.55075e-06
-4.22291e-07
8.02572e-07
-9.62904e-07
1.35915e-06
-1.45636e-06
1.48999e-06
-1.89082e-06
1.51648e-06
-2.28775e-06
1.5295e-06
-2.65225e-06
1.52999e-06
-2.97971e-06
1.51341e-06
-3.26409e-06
1.48071e-06
-3.50196e-06
1.4345e-06
-3.69548e-06
1.38186e-06
-3.84767e-06
1.32534e-06
-3.96155e-06
1.26635e-06
-4.04004e-06
1.2061e-06
-4.08594e-06
1.14553e-06
-4.10177e-06
1.08529e-06
-4.08981e-06
1.02583e-06
-4.05209e-06
9.67505e-07
-3.99032e-06
9.10426e-07
-3.9059e-06
8.54621e-07
-3.79996e-06
8.00214e-07
-3.67341e-06
7.47266e-07
-3.52686e-06
6.95739e-07
-3.36068e-06
6.45537e-07
-3.17494e-06
5.96462e-07
-2.96942e-06
5.48171e-07
-2.74356e-06
5.00263e-07
-2.49659e-06
4.52437e-07
-2.22768e-06
4.04555e-07
-1.93556e-06
3.5581e-07
-1.61881e-06
3.05576e-07
-1.27582e-06
2.53137e-07
-9.04771e-07
1.97597e-07
-5.03578e-07
1.37889e-07
-6.96768e-08
7.26361e-08
4.01226e-07
-1.06683e-09
9.07746e-07
-7.68918e-08
1.45484e-06
-1.62971e-07
2.04584e-06
-2.58673e-07
2.68406e-06
-3.65305e-07
3.37299e-06
-4.84648e-07
4.1158e-06
-6.18614e-07
4.91392e-06
-7.69189e-07
5.77303e-06
-9.38399e-07
6.69549e-06
-1.12945e-06
7.68211e-06
-1.34566e-06
8.73223e-06
-1.59024e-06
9.84479e-06
-1.86575e-06
1.10176e-05
-2.17299e-06
1.22479e-05
-2.51332e-06
1.35309e-05
-2.88465e-06
1.48616e-05
-3.28669e-06
1.62349e-05
-3.71246e-06
1.76451e-05
-4.15909e-06
1.90859e-05
-4.61586e-06
2.05514e-05
-5.07897e-06
2.20353e-05
-5.53436e-06
2.35296e-05
-5.97864e-06
2.5027e-05
-6.39604e-06
2.65185e-05
-6.78459e-06
2.79957e-05
-7.12801e-06
2.94493e-05
-7.42748e-06
3.08715e-05
-7.6674e-06
3.22532e-05
-7.85364e-06
3.35871e-05
-7.97376e-06
3.48671e-05
-8.03801e-06
3.60879e-05
-8.0358e-06
3.72463e-05
-7.9814e-06
3.83389e-05
-7.86621e-06
3.93653e-05
-7.7078e-06
4.0324e-05
-7.49896e-06
4.12174e-05
-7.25935e-06
4.20452e-05
-6.98219e-06
4.28121e-05
-6.68797e-06
4.35186e-05
-6.36964e-06
4.41709e-05
-6.04741e-06
4.47695e-05
-5.71349e-06
4.53217e-05
-5.38709e-06
4.58275e-05
-5.05957e-06
4.6295e-05
-4.74874e-06
4.67231e-05
-4.44535e-06
4.71209e-05
-4.16556e-06
4.74858e-05
-3.89992e-06
4.78279e-05
-3.66283e-06
4.8143e-05
-3.44516e-06
4.84423e-05
-3.25943e-06
4.87196e-05
-3.09753e-06
4.89875e-05
-2.96988e-06
4.92374e-05
-2.87025e-06
4.94834e-05
-2.80673e-06
-2.78166e-06
-2.66918e-07
1.06949e-06
-8.62819e-07
1.95505e-06
-1.48308e-06
2.11025e-06
-2.00219e-06
2.03558e-06
-2.39288e-06
1.9202e-06
-2.65805e-06
1.79515e-06
-2.8155e-06
1.67086e-06
-2.88555e-06
1.55076e-06
-2.88561e-06
1.43456e-06
-2.82675e-06
1.323e-06
-2.71732e-06
1.21592e-06
-2.56397e-06
1.113e-06
-2.37244e-06
1.01457e-06
-2.14763e-06
9.20727e-07
-1.89369e-06
8.31339e-07
-1.61404e-06
7.4618e-07
-1.31159e-06
6.65055e-07
-9.88601e-07
5.87438e-07
-6.46804e-07
5.12824e-07
-2.87647e-07
4.41057e-07
8.78487e-08
3.7177e-07
4.79056e-07
3.04531e-07
8.85684e-07
2.38909e-07
1.30788e-06
1.74269e-07
1.74626e-06
1.09789e-07
2.20198e-06
4.45399e-08
2.67614e-06
-2.17229e-08
3.16894e-06
-8.8247e-08
3.6826e-06
-1.57845e-07
4.21898e-06
-2.30806e-07
4.78005e-06
-3.07937e-07
5.36797e-06
-3.90319e-07
5.98493e-06
-4.7907e-07
6.63301e-06
-5.75446e-07
7.31225e-06
-6.80308e-07
8.02963e-06
-7.94266e-07
8.78591e-06
-9.19255e-07
9.58397e-06
-1.05674e-06
1.04266e-05
-1.2079e-06
1.13164e-05
-1.37445e-06
1.22557e-05
-1.55792e-06
1.32469e-05
-1.76041e-06
1.42921e-05
-1.98356e-06
1.53921e-05
-2.22953e-06
1.65469e-05
-2.50045e-06
1.77549e-05
-2.79822e-06
1.90134e-05
-3.12429e-06
2.0319e-05
-3.47854e-06
2.16665e-05
-3.86087e-06
2.30504e-05
-4.26847e-06
2.4463e-05
-4.69933e-06
2.58973e-05
-5.14676e-06
2.73443e-05
-5.60606e-06
2.87957e-05
-6.06727e-06
3.02416e-05
-6.52488e-06
3.16736e-05
-6.96634e-06
3.30811e-05
-7.38622e-06
3.44558e-05
-7.77066e-06
3.57871e-05
-8.11596e-06
3.70678e-05
-8.40864e-06
3.82891e-05
-8.64885e-06
3.94455e-05
-8.82378e-06
4.05308e-05
-8.93887e-06
4.15416e-05
-8.98462e-06
4.24761e-05
-8.97248e-06
4.33345e-05
-8.89418e-06
4.41179e-05
-8.7648e-06
4.48286e-05
-8.57691e-06
4.54703e-05
-8.3495e-06
4.60466e-05
-8.07527e-06
4.65631e-05
-7.77584e-06
4.70237e-05
-7.44287e-06
4.74352e-05
-7.09941e-06
4.78009e-05
-6.73531e-06
4.81277e-05
-6.37421e-06
4.84179e-05
-6.00375e-06
4.86786e-05
-5.64773e-06
4.89104e-05
-5.29145e-06
4.91205e-05
-4.95877e-06
4.93079e-05
-4.63279e-06
4.94798e-05
-4.33747e-06
4.96338e-05
-4.05392e-06
4.97773e-05
-3.80633e-06
4.99063e-05
-3.57412e-06
5.00287e-05
-3.38189e-06
5.01389e-05
-3.2077e-06
5.02457e-05
-3.07669e-06
5.03413e-05
-2.96585e-06
5.04352e-05
-2.90064e-06
-2.86075e-06
-1.49465e-06
2.56414e-06
-1.94574e-06
2.40614e-06
-2.11131e-06
2.27583e-06
-2.1281e-06
2.05236e-06
-2.01586e-06
1.80796e-06
-1.79845e-06
1.57774e-06
-1.49512e-06
1.36753e-06
-1.1203e-06
1.17595e-06
-6.8667e-07
1.00093e-06
-2.06556e-07
8.42882e-07
3.10773e-07
6.98588e-07
8.57575e-07
5.66201e-07
1.42711e-06
4.45034e-07
2.01431e-06
3.33529e-07
2.61531e-06
2.30341e-07
3.22694e-06
1.34545e-07
3.84627e-06
4.57278e-08
4.47246e-06
-3.87566e-08
5.10517e-06
-1.19882e-07
5.74275e-06
-1.96526e-07
6.38488e-06
-2.70356e-07
7.03175e-06
-3.4234e-07
7.68351e-06
-4.12848e-07
8.34078e-06
-4.83004e-07
9.00521e-06
-5.54645e-07
9.67779e-06
-6.28038e-07
1.03599e-05
-7.03846e-07
1.10546e-05
-7.82924e-07
1.17633e-05
-8.66542e-07
1.24882e-05
-9.55741e-07
1.32317e-05
-1.05143e-06
1.39961e-05
-1.1547e-06
1.47836e-05
-1.2666e-06
1.55965e-05
-1.38828e-06
1.6437e-05
-1.52086e-06
1.73081e-05
-1.66537e-06
1.82117e-05
-1.82282e-06
1.91497e-05
-1.99479e-06
2.01241e-05
-2.1823e-06
2.11366e-05
-2.38689e-06
2.21882e-05
-2.60958e-06
2.32799e-05
-2.85204e-06
2.44116e-05
-3.11525e-06
2.55826e-05
-3.40058e-06
2.67909e-05
-3.70867e-06
2.80331e-05
-4.04044e-06
2.93045e-05
-4.39567e-06
3.05995e-05
-4.77362e-06
3.19109e-05
-5.17222e-06
3.32308e-05
-5.58841e-06
3.45501e-05
-6.01854e-06
3.58592e-05
-6.45592e-06
3.71469e-05
-6.89374e-06
3.84035e-05
-7.32391e-06
3.96177e-05
-7.73907e-06
4.07805e-05
-8.12917e-06
4.18816e-05
-8.48726e-06
4.29138e-05
-8.80293e-06
4.38695e-05
-9.07158e-06
4.47446e-05
-9.28374e-06
4.55345e-05
-9.4388e-06
4.62395e-05
-9.52877e-06
4.68586e-05
-9.558e-06
4.73943e-05
-9.52031e-06
4.78505e-05
-9.42862e-06
4.82336e-05
-9.27729e-06
4.85494e-05
-9.08063e-06
4.88054e-05
-8.83291e-06
4.90087e-05
-8.55281e-06
4.91666e-05
-8.23318e-06
4.92866e-05
-7.89581e-06
4.93745e-05
-7.53084e-06
4.94375e-05
-7.16234e-06
4.94793e-05
-6.7771e-06
4.95061e-05
-6.40103e-06
4.95196e-05
-6.01723e-06
4.95252e-05
-5.65337e-06
4.95226e-05
-5.28882e-06
4.95169e-05
-4.95304e-06
4.95058e-05
-4.62169e-06
4.94945e-05
-4.32618e-06
4.94791e-05
-4.03855e-06
4.94651e-05
-3.79238e-06
4.94473e-05
-3.55624e-06
4.94315e-05
-3.36608e-06
4.94109e-05
-3.18718e-06
4.93923e-05
-3.05805e-06
4.93674e-05
-2.94097e-06
4.93441e-05
-2.87732e-06
-2.82284e-06
-8.95489e-07
3.45963e-06
-7.42245e-07
2.25289e-06
-2.52807e-07
1.78639e-06
4.58152e-07
1.3414e-06
1.32545e-06
9.4066e-07
2.283e-06
6.20196e-07
3.28444e-06
3.66086e-07
4.3024e-06
1.57989e-07
5.32298e-06
-1.96548e-08
6.33113e-06
-1.65268e-07
7.32873e-06
-2.99012e-07
8.31384e-06
-4.18911e-07
9.28198e-06
-5.23099e-07
1.02324e-05
-6.16857e-07
1.11648e-05
-7.0214e-07
1.20796e-05
-7.80208e-07
1.29776e-05
-8.52252e-07
1.38587e-05
-9.19838e-07
1.47229e-05
-9.84149e-07
1.55722e-05
-1.04582e-06
1.64078e-05
-1.10599e-06
1.72312e-05
-1.16573e-06
1.80442e-05
-1.22577e-06
1.88491e-05
-1.28798e-06
1.96479e-05
-1.35345e-06
2.04429e-05
-1.42297e-06
2.12365e-05
-1.49746e-06
2.20314e-05
-1.57789e-06
2.28301e-05
-1.66523e-06
2.3635e-05
-1.76062e-06
2.44486e-05
-1.86501e-06
2.52732e-05
-1.97933e-06
2.6111e-05
-2.10441e-06
2.69641e-05
-2.2413e-06
2.78341e-05
-2.39088e-06
2.87228e-05
-2.55412e-06
2.96317e-05
-2.73172e-06
3.05617e-05
-2.92479e-06
3.15134e-05
-3.13402e-06
3.2487e-05
-3.36045e-06
3.3482e-05
-3.60454e-06
3.44972e-05
-3.86728e-06
3.55312e-05
-4.14925e-06
3.6581e-05
-4.45037e-06
3.76425e-05
-4.77015e-06
3.87106e-05
-5.10855e-06
3.97789e-05
-5.46397e-06
4.08401e-05
-5.83485e-06
4.18857e-05
-6.21785e-06
4.29069e-05
-6.60957e-06
4.3893e-05
-7.00464e-06
4.48346e-05
-7.39749e-06
4.57217e-05
-7.78085e-06
4.65457e-05
-8.14796e-06
4.72977e-05
-8.49107e-06
4.79716e-05
-8.80305e-06
4.85612e-05
-9.07688e-06
4.90644e-05
-9.30615e-06
4.9479e-05
-9.48615e-06
4.98073e-05
-9.61201e-06
5.00509e-05
-9.68242e-06
5.02165e-05
-9.69434e-06
5.03092e-05
-9.65075e-06
5.0339e-05
-9.55011e-06
5.03126e-05
-9.40218e-06
5.0241e-05
-9.20569e-06
5.01318e-05
-8.97141e-06
4.99951e-05
-8.69627e-06
4.98376e-05
-8.39528e-06
4.96672e-05
-8.06279e-06
4.94889e-05
-7.7175e-06
4.93079e-05
-7.3499e-06
4.91278e-05
-6.98224e-06
4.8951e-05
-6.60023e-06
4.87798e-05
-6.22988e-06
4.86142e-05
-5.85158e-06
4.84564e-05
-5.49556e-06
4.83041e-05
-5.13654e-06
4.81603e-05
-4.80924e-06
4.80208e-05
-4.48217e-06
4.78895e-05
-4.19495e-06
4.77606e-05
-3.90958e-06
4.76393e-05
-3.67108e-06
4.75177e-05
-3.43463e-06
4.74028e-05
-3.25117e-06
4.72844e-05
-3.0688e-06
4.71711e-05
-2.94478e-06
4.70503e-05
-2.82019e-06
4.69322e-05
-2.75919e-06
-2.69328e-06
3.65318e-06
-1.93554e-07
6.37631e-06
-4.70237e-07
8.78491e-06
-6.22209e-07
1.09034e-05
-7.77053e-07
1.27746e-05
-9.30589e-07
1.44628e-05
-1.06802e-06
1.60127e-05
-1.18378e-06
1.74414e-05
-1.2707e-06
1.87742e-05
-1.35245e-06
2.00339e-05
-1.42496e-06
2.12235e-05
-1.48864e-06
2.23499e-05
-1.54533e-06
2.34225e-05
-1.59564e-06
2.44462e-05
-1.6406e-06
2.54253e-05
-1.68121e-06
2.63635e-05
-1.71839e-06
2.72642e-05
-1.75298e-06
2.81303e-05
-1.78593e-06
2.89644e-05
-1.8183e-06
2.97697e-05
-1.85107e-06
3.05489e-05
-1.88519e-06
3.13048e-05
-1.92169e-06
3.20407e-05
-1.96167e-06
3.27591e-05
-2.00636e-06
3.34625e-05
-2.05683e-06
3.41536e-05
-2.11406e-06
3.48351e-05
-2.17892e-06
3.55094e-05
-2.25224e-06
3.6179e-05
-2.33485e-06
3.6846e-05
-2.42764e-06
3.75127e-05
-2.53169e-06
3.81808e-05
-2.64737e-06
3.88516e-05
-2.77529e-06
3.95266e-05
-2.91624e-06
4.02065e-05
-3.07081e-06
4.0892e-05
-3.2396e-06
4.15833e-05
-3.42304e-06
4.22802e-05
-3.62164e-06
4.29819e-05
-3.83573e-06
4.36871e-05
-4.06569e-06
4.43941e-05
-4.31156e-06
4.51003e-05
-4.57347e-06
4.58021e-05
-4.85102e-06
4.64954e-05
-5.14368e-06
4.71755e-05
-5.45026e-06
4.78366e-05
-5.76961e-06
4.84721e-05
-6.09954e-06
4.90751e-05
-6.43778e-06
4.96379e-05
-6.78072e-06
5.01531e-05
-7.12472e-06
5.06131e-05
-7.46461e-06
5.10111e-05
-7.79555e-06
5.13415e-05
-8.11123e-06
5.15998e-05
-8.40626e-06
5.17828e-05
-8.67409e-06
5.18897e-05
-8.9099e-06
5.19209e-05
-9.10814e-06
5.18803e-05
-9.26555e-06
5.17723e-05
-9.37812e-06
5.16045e-05
-9.44422e-06
5.1384e-05
-9.46192e-06
5.11208e-05
-9.43118e-06
5.08231e-05
-9.35296e-06
5.05024e-05
-9.2294e-06
5.01645e-05
-9.06437e-06
4.98189e-05
-8.86004e-06
4.94696e-05
-8.62212e-06
4.91243e-05
-8.35099e-06
4.8784e-05
-8.05497e-06
4.84537e-05
-7.7325e-06
4.81319e-05
-7.39566e-06
4.78218e-05
-7.03983e-06
4.75207e-05
-6.68119e-06
4.72308e-05
-6.31025e-06
4.69487e-05
-5.94785e-06
4.66758e-05
-5.57861e-06
4.64095e-05
-5.22926e-06
4.61501e-05
-4.87716e-06
4.58966e-05
-4.55581e-06
4.56482e-05
-4.23369e-06
4.54055e-05
-3.95227e-06
4.51656e-05
-3.66969e-06
4.49316e-05
-3.43708e-06
4.46976e-05
-3.20063e-06
4.44694e-05
-3.02297e-06
4.42372e-05
-2.83661e-06
4.401e-05
-2.71763e-06
4.3773e-05
-2.58312e-06
4.35382e-05
-2.52442e-06
-2.44748e-06
3.86045e-05
1.48665e-08
3.85716e-05
-4.37367e-07
3.87093e-05
-7.59855e-07
3.89329e-05
-1.0007e-06
3.92046e-05
-1.20226e-06
3.95185e-05
-1.38189e-06
3.98757e-05
-1.54104e-06
4.02778e-05
-1.67276e-06
4.07044e-05
-1.77906e-06
4.11456e-05
-1.86621e-06
4.15946e-05
-1.93755e-06
4.20455e-05
-1.99629e-06
4.24945e-05
-2.04469e-06
4.29384e-05
-2.08449e-06
4.33746e-05
-2.11737e-06
4.38011e-05
-2.1449e-06
4.42167e-05
-2.16861e-06
4.46208e-05
-2.18996e-06
4.50129e-05
-2.2104e-06
4.53932e-05
-2.23136e-06
4.57622e-05
-2.25418e-06
4.61206e-05
-2.28016e-06
4.64696e-05
-2.31058e-06
4.68098e-05
-2.34663e-06
4.71425e-05
-2.38948e-06
4.74686e-05
-2.44016e-06
4.77893e-05
-2.4996e-06
4.81056e-05
-2.5686e-06
4.84187e-05
-2.64793e-06
4.87293e-05
-2.73827e-06
4.90379e-05
-2.84028e-06
4.9345e-05
-2.95442e-06
4.96508e-05
-3.08115e-06
4.99555e-05
-3.22086e-06
5.02586e-05
-3.37392e-06
5.05596e-05
-3.54059e-06
5.08576e-05
-3.72107e-06
5.11514e-05
-3.91546e-06
5.14395e-05
-4.12377e-06
5.17196e-05
-4.34588e-06
5.19896e-05
-4.58155e-06
5.22465e-05
-4.8303e-06
5.24869e-05
-5.09143e-06
5.27071e-05
-5.36394e-06
5.29034e-05
-5.64649e-06
5.30711e-05
-5.93736e-06
5.3206e-05
-6.23441e-06
5.33034e-05
-6.53514e-06
5.33591e-05
-6.83647e-06
5.33693e-05
-7.13493e-06
5.33311e-05
-7.4264e-06
5.32423e-05
-7.70672e-06
5.31022e-05
-7.97117e-06
5.29114e-05
-8.21541e-06
5.26719e-05
-8.43463e-06
5.23869e-05
-8.62486e-06
5.20612e-05
-8.78248e-06
5.1701e-05
-8.9053e-06
5.13127e-05
-8.98988e-06
5.09035e-05
-9.03501e-06
5.04798e-05
-9.03822e-06
5.00481e-05
-8.99942e-06
4.96126e-05
-8.91749e-06
4.91776e-05
-8.79444e-06
4.87441e-05
-8.63085e-06
4.83142e-05
-8.43013e-06
4.78862e-05
-8.19413e-06
4.74618e-05
-7.92653e-06
4.70372e-05
-7.63042e-06
4.6614e-05
-7.30932e-06
4.61875e-05
-6.96914e-06
4.57606e-05
-6.61291e-06
4.53286e-05
-6.24922e-06
4.48963e-05
-5.87796e-06
4.44591e-05
-5.51063e-06
4.40232e-05
-5.14272e-06
4.35841e-05
-4.7901e-06
4.31488e-05
-4.44193e-06
4.27129e-05
-4.11982e-06
4.22834e-05
-3.8042e-06
4.18557e-05
-3.52456e-06
4.1436e-05
-3.25002e-06
4.102e-05
-3.02105e-06
4.06115e-05
-2.7922e-06
4.02074e-05
-2.61885e-06
3.98076e-05
-2.43679e-06
3.94115e-05
-2.32154e-06
3.90135e-05
-2.18504e-06
3.86175e-05
-2.12848e-06
-2.03878e-06
5.29825e-05
9.26317e-08
5.28874e-05
-3.42307e-07
5.28577e-05
-7.30079e-07
5.28805e-05
-1.02357e-06
5.29249e-05
-1.24663e-06
5.29716e-05
-1.42857e-06
5.30169e-05
-1.58633e-06
5.30685e-05
-1.72442e-06
5.31315e-05
-1.84204e-06
5.32046e-05
-1.93925e-06
5.32849e-05
-2.01786e-06
5.33692e-05
-2.08061e-06
5.34549e-05
-2.13042e-06
5.35403e-05
-2.16983e-06
5.36239e-05
-2.20097e-06
5.37047e-05
-2.22576e-06
5.37821e-05
-2.24594e-06
5.38553e-05
-2.26319e-06
5.39241e-05
-2.27917e-06
5.39881e-05
-2.29545e-06
5.40475e-05
-2.31358e-06
5.41024e-05
-2.33499e-06
5.41528e-05
-2.36105e-06
5.41992e-05
-2.393e-06
5.42417e-05
-2.43199e-06
5.42806e-05
-2.47908e-06
5.43162e-05
-2.53517e-06
5.43486e-05
-2.60105e-06
5.43781e-05
-2.67739e-06
5.44046e-05
-2.76477e-06
5.4428e-05
-2.86368e-06
5.44481e-05
-2.97453e-06
5.44646e-05
-3.09765e-06
5.4477e-05
-3.23327e-06
5.44847e-05
-3.3816e-06
5.44868e-05
-3.54271e-06
5.44824e-05
-3.71668e-06
5.44704e-05
-3.9034e-06
5.44494e-05
-4.10274e-06
5.44179e-05
-4.31441e-06
5.43743e-05
-4.53799e-06
5.43169e-05
-4.77286e-06
5.42437e-05
-5.01825e-06
5.41528e-05
-5.27307e-06
5.40423e-05
-5.53598e-06
5.39102e-05
-5.80525e-06
5.37546e-05
-6.07879e-06
5.35738e-05
-6.35437e-06
5.33668e-05
-6.62945e-06
5.31327e-05
-6.9008e-06
5.28712e-05
-7.16497e-06
5.25827e-05
-7.4182e-06
5.22682e-05
-7.65662e-06
5.1929e-05
-7.8762e-06
5.15672e-05
-8.07292e-06
5.11853e-05
-8.24288e-06
5.07853e-05
-8.38253e-06
5.03688e-05
-8.48883e-06
4.99376e-05
-8.55863e-06
4.94922e-05
-8.5896e-06
4.90331e-05
-8.57907e-06
4.85589e-05
-8.52523e-06
4.80681e-05
-8.42676e-06
4.75584e-05
-8.28476e-06
4.70277e-05
-8.10015e-06
4.64737e-05
-7.87611e-06
4.58937e-05
-7.61414e-06
4.52876e-05
-7.32044e-06
4.46551e-05
-6.9979e-06
4.39984e-05
-6.65258e-06
4.33179e-05
-6.28868e-06
4.26187e-05
-5.91375e-06
4.1902e-05
-5.53246e-06
4.11754e-05
-5.15137e-06
4.04399e-05
-4.77511e-06
3.97054e-05
-4.40823e-06
3.8971e-05
-4.05577e-06
3.8248e-05
-3.71893e-06
3.75324e-05
-3.40417e-06
3.68362e-05
-3.10802e-06
3.6152e-05
-2.84032e-06
3.54926e-05
-2.59066e-06
3.48466e-05
-2.37503e-06
3.42274e-05
-2.17306e-06
3.36199e-05
-2.01136e-06
3.30372e-05
-1.85401e-06
3.24618e-05
-1.74621e-06
3.19058e-05
-1.62898e-06
3.13528e-05
-1.57553e-06
-1.48792e-06
5.43195e-05
-2.27155e-07
5.45022e-05
-5.25007e-07
5.46066e-05
-8.34519e-07
5.46941e-05