/*--------------------------------*- C++ -*----------------------------------*\
| =========                 |                                                 |
| \\      /  F ield         | OpenFOAM: The Open Source CFD Toolbox           |
|  \\    /   O peration     | Version:  2306                                  |
|   \\  /    A nd           | Website:  www.openfoam.com                      |
|    \\/     M anipulation  |                                                 |
\*---------------------------------------------------------------------------*/
FoamFile
{
    version     2.0;
    format      ascii;
    arch        "LSB;label=32;scalar=64";
    class       volScalarField;
    location    "7";
    object      p;
}
// * * * * * * * * * * * * * * * * * * * * * * * * * * * * * * * * * * * * * //

dimensions      [0 2 -2 0 0 0 0];

internalField   nonuniform List<scalar> 
1900
(
0.053541
0.0293232
0.00893464
-0.0064005
-0.0174134
-0.0279573
-0.0383837
-0.0505264
-0.0630527
-0.077068
0.0242798
0.0160824
0.00476977
-0.00677819
-0.0177957
-0.0279744
-0.0383945
-0.0488918
-0.0603691
-0.0714056
0.0151823
0.0106928
0.00317979
-0.00618462
-0.0162632
-0.0262359
-0.0360077
-0.0455518
-0.0549689
-0.0640409
0.00947649
0.00640383
0.000755597
-0.00689034
-0.0157386
-0.0249748
-0.034161
-0.0430694
-0.0516561
-0.0598115
0.00724648
0.00471131
-2.69442e-05
-0.00667445
-0.0146525
-0.023255
-0.0319288
-0.0403516
-0.0483756
-0.0559123
0.00787481
0.0053937
0.000782258
-0.00568389
-0.013424
-0.0217298
-0.0300429
-0.0380468
-0.0456178
-0.0527274
0.0113248
0.00837794
0.00309516
-0.0039905
-0.0120544
-0.0203462
-0.0284008
-0.036041
-0.0432592
-0.0500908
0.0180191
0.0137224
0.00682227
-0.00165037
-0.0104757
-0.0189073
-0.0267498
-0.0340974
-0.0411
-0.0478203
0.0281558
0.0200553
0.0096163
-0.000849294
-0.0101629
-0.0182833
-0.0256632
-0.032726
-0.0396357
-0.0463527
0.0570043
0.0343302
0.0146199
0.000551977
-0.00911258
-0.0168172
-0.0240586
-0.0312922
-0.0384685
-0.0453826
-0.100204
-0.100238
-0.100283
-0.100337
-0.100397
-0.100463
-0.100534
-0.100609
-0.100687
-0.100766
-0.100845
-0.100921
-0.100992
-0.101058
-0.101115
-0.101163
-0.1012
-0.101223
-0.101232
-0.101224
-0.1012
-0.101157
-0.101095
-0.101013
-0.100909
-0.100784
-0.100637
-0.100467
-0.100274
-0.100057
-0.0998162
-0.0995509
-0.0992603
-0.0989435
-0.0985996
-0.0982271
-0.0978242
-0.0973886
-0.0969172
-0.0964056
-0.0958481
-0.0952371
-0.0945626
-0.0938112
-0.092966
-0.0920061
-0.0909065
-0.0896386
-0.0881709
-0.086469
-0.0844952
-0.0822091
-0.0795671
-0.0765231
-0.0730293
-0.069043
-0.064532
-0.0594712
-0.0538548
-0.0477084
-0.0410764
-0.0340248
-0.0266403
-0.0190358
-0.0113396
-0.00368405
0.00379123
0.0109531
0.017671
0.0238419
0.0293524
0.0341475
0.0381554
0.0413716
0.0437486
0.0453264
0.0460992
0.0461289
0.0454255
0.0440741
0.0420854
0.0395554
0.0364821
0.0329667
0.0289782
0.0246276
0.0198274
0.0147261
0.00911958
0.00329491
-0.100199
-0.100231
-0.100258
-0.1003
-0.100351
-0.10041
-0.100476
-0.100546
-0.10062
-0.100696
-0.100772
-0.100845
-0.100915
-0.100979
-0.101036
-0.101083
-0.101119
-0.101142
-0.101151
-0.101144
-0.10112
-0.101077
-0.101015
-0.100933
-0.100829
-0.100704
-0.100556
-0.100385
-0.100191
-0.0999719
-0.0997286
-0.0994599
-0.0991652
-0.0988435
-0.0984936
-0.098114
-0.0977027
-0.0972574
-0.0967747
-0.0962505
-0.0956792
-0.0950536
-0.0943646
-0.0936009
-0.092748
-0.0917879
-0.0906989
-0.0894556
-0.0880291
-0.0863873
-0.084492
-0.0822994
-0.0797607
-0.0768235
-0.0734314
-0.0695336
-0.0651008
-0.0601253
-0.0545976
-0.0485247
-0.0419429
-0.0349242
-0.0275571
-0.0199545
-0.0122498
-0.00457722
0.00291605
0.0100979
0.0168243
0.0230306
0.0285432
0.0333503
0.0373656
0.0405876
0.0429715
0.0445588
0.045336
0.0453784
0.0446826
0.0433507
0.0413747
0.0388738
0.03582
0.0323448
0.0283844
0.0240835
0.0193282
0.0142854
0.0087935
0.00308892
-0.100082
-0.100164
-0.100209
-0.100262
-0.100318
-0.100379
-0.100447
-0.10052
-0.100596
-0.100675
-0.100754
-0.100831
-0.100904
-0.100972
-0.101032
-0.101083
-0.101123
-0.101149
-0.101161
-0.101157
-0.101135
-0.101095
-0.101034
-0.100953
-0.10085
-0.100725
-0.100577
-0.100406
-0.10021
-0.0999907
-0.0997464
-0.0994768
-0.0991815
-0.0988596
-0.0985099
-0.0981312
-0.0977217
-0.097279
-0.0968001
-0.0962807
-0.0957153
-0.0950967
-0.0944165
-0.0936648
-0.0928299
-0.0918972
-0.0908482
-0.0896591
-0.0883014
-0.086745
-0.0849498
-0.0828652
-0.0804349
-0.0776111
-0.0743373
-0.0705533
-0.0662032
-0.0612652
-0.0557427
-0.0496637
-0.0430698
-0.0360395
-0.0286611
-0.021032
-0.0133319
-0.00566746
0.00180908
0.00897709
0.0156865
0.0218551
0.0273475
0.032125
0.0361085
0.0392997
0.0416558
0.0432207
0.0439808
0.0440157
0.0433228
0.0420054
0.0400585
0.0375989
0.0346065
0.0312039
0.0273453
0.0231564
0.0185606
0.0136912
0.00844935
0.00299085
-0.100164
-0.100238
-0.100242
-0.100268
-0.100314
-0.100376
-0.100449
-0.100529
-0.100614
-0.100702
-0.100789
-0.100874
-0.100955
-0.10103
-0.101096
-0.101152
-0.101196
-0.101227
-0.101241
-0.101239
-0.101219
-0.101179
-0.101119
-0.101037
-0.100934
-0.100807
-0.100656
-0.100482
-0.100284
-0.100061
-0.099813
-0.0995404
-0.0992426
-0.0989187
-0.0985678
-0.0981887
-0.09778
-0.0973397
-0.0968649
-0.0963516
-0.0957945
-0.0951862
-0.0945186
-0.0937844
-0.0929739
-0.0920744
-0.0910685
-0.0899327
-0.0886359
-0.0871538
-0.0854427
-0.0834483
-0.0811053
-0.0783487
-0.075118
-0.0713708
-0.0670511
-0.0621471
-0.0566539
-0.0506027
-0.0440392
-0.0370445
-0.0297134
-0.0221603
-0.0145352
-0.00696598
0.000399136
0.00744002
0.014015
0.0200358
0.0253898
0.0300289
0.0338856
0.0369591
0.0392189
0.040705
0.0414147
0.0414211
0.0407345
0.0394473
0.0375696
0.0352026
0.032345
0.0290994
0.0254463
0.0214867
0.0171804
0.0126288
0.00777191
0.00271767
-0.0998403
-0.100045
-0.100136
-0.10024
-0.100338
-0.100431
-0.100524
-0.100619
-0.100716
-0.100813
-0.100909
-0.101002
-0.101089
-0.101169
-0.101238
-0.101297
-0.101343
-0.101373
-0.101388
-0.101384
-0.101362
-0.10132
-0.101256
-0.10117
-0.101062
-0.100931
-0.100775
-0.100596
-0.100393
-0.100165
-0.0999133
-0.0996375
-0.0993375
-0.0990127
-0.0986618
-0.0982835
-0.0978769
-0.0974404
-0.096971
-0.0964651
-0.095917
-0.0953192
-0.0946629
-0.0939456
-0.0931575
-0.0922838
-0.0913063
-0.0902111
-0.0889484
-0.0874867
-0.0857867
-0.0837994
-0.0814578
-0.0787046
-0.0754748
-0.0717243
-0.0674084
-0.0625166
-0.0570514
-0.0510484
-0.0445601
-0.0376693
-0.0304766
-0.0230993
-0.0156739
-0.00833468
-0.00122067
0.00554755
0.0118454
0.0175817
0.0226644
0.0270433
0.030667
0.0335318
0.0356237
0.0369774
0.0376052
0.0375704
0.0368986
0.0356683
0.0339059
0.0316946
0.0290522
0.0260605
0.0227232
0.0191186
0.0152346
0.0111481
0.0068328
0.00237235
-0.100671
-0.100694
-0.100593
-0.100548
-0.100559
-0.100616
-0.100704
-0.100805
-0.100907
-0.101008
-0.101106
-0.101198
-0.101283
-0.101359
-0.101425
-0.101478
-0.101517
-0.101542
-0.10155
-0.10154
-0.10151
-0.101461
-0.10139
-0.101298
-0.101183
-0.101046
-0.100885
-0.1007
-0.100492
-0.100261
-0.100006
-0.0997275
-0.0994257
-0.0990998
-0.0987482
-0.09837
-0.0979662
-0.0975343
-0.0970706
-0.096571
-0.0960303
-0.0954417
-0.0947945
-0.094077
-0.0932828
-0.0924007
-0.0914095
-0.0902867
-0.0889957
-0.0875024
-0.0857596
-0.0837196
-0.0813196
-0.0785059
-0.0752205
-0.0714254
-0.0670881
-0.0622033
-0.0567816
-0.0508643
-0.0445104
-0.0378066
-0.0308539
-0.0237712
-0.0166846
-0.00972474
-0.00301707
0.00332303
0.00918982
0.0144972
0.0191725
0.0231698
0.026456
0.0290277
0.0308876
0.0320668
0.0325921
0.0325178
0.0318824
0.0307508
0.0291621
0.0271826
0.0248442
0.0222095
0.019299
0.0161704
0.0128322
0.00934008
0.00569307
0.0019501
-0.09935
-0.099994
-0.100196
-0.100452
-0.100667
-0.100829
-0.100951
-0.101052
-0.101144
-0.101232
-0.101315
-0.101393
-0.101463
-0.101525
-0.101576
-0.101616
-0.101644
-0.101657
-0.101655
-0.101636
-0.101598
-0.101541
-0.101464
-0.101365
-0.101245
-0.101103
-0.100937
-0.100748
-0.100537
-0.100304
-0.100048
-0.0997686
-0.0994668
-0.0991415
-0.0987909
-0.0984116
-0.0980005
-0.0975592
-0.0970844
-0.0965707
-0.0960112
-0.0953984
-0.0947222
-0.0939735
-0.0931398
-0.0922072
-0.0911532
-0.089954
-0.0885742
-0.0869773
-0.0851177
-0.0829505
-0.0804227
-0.0774878
-0.0741001
-0.0702302
-0.0658584
-0.0609887
-0.0556413
-0.0498643
-0.043722
-0.0373037
-0.0307085
-0.0240522
-0.0174504
-0.0110236
-0.00487987
0.000878676
0.00616748
0.0109128
0.0150624
0.0185798
0.02145
0.0236735
0.0252673
0.0262601
0.0266897
0.0266014
0.0260423
0.0250636
0.0237124
0.0220385
0.0200826
0.017889
0.0154895
0.0129224
0.0102105
0.00738872
0.00447367
0.00150158
-0.104056
-0.102677
-0.102049
-0.101615
-0.101388
-0.101298
-0.101286
-0.101311
-0.101349
-0.101395
-0.101445
-0.101494
-0.10154
-0.101583
-0.101619
-0.101647
-0.101664
-0.10167
-0.101659
-0.101632
-0.101588
-0.101526
-0.101444
-0.101343
-0.101222
-0.101079
-0.100913
-0.10072
-0.100503
-0.100262
-0.0999969
-0.0997071
-0.0993912
-0.0990481
-0.0986757
-0.0982714
-0.097833
-0.0973579
-0.0968419
-0.0962791
-0.0956615
-0.0949807
-0.0942258
-0.0933853
-0.0924446
-0.091388
-0.0901935
-0.0888363
-0.087284
-0.0855022
-0.0834507
-0.0810903
-0.0783793
-0.0752822
-0.0717686
-0.0678216
-0.0634353
-0.0586244
-0.0534185
-0.047871
-0.042048
-0.0360371
-0.0299312
-0.0238378
-0.0178585
-0.0120998
-0.00665017
-0.00159295
0.00301104
0.00710532
0.0106589
0.0136473
0.0160716
0.0179365
0.0192694
0.0200954
0.0204582
0.0203935
0.0199521
0.0191716
0.0181028
0.0167795
0.0152478
0.0135344
0.0116789
0.00970102
0.00763419
0.00549273
0.00330443
0.00108014
-0.098222
-0.0993032
-0.100139
-0.10075
-0.101066
-0.101185
-0.10122
-0.101235
-0.10125
-0.10128
-0.101319
-0.101359
-0.101398
-0.101436
-0.101469
-0.101494
-0.101512
-0.101521
-0.10152
-0.101501
-0.101461
-0.1014
-0.101317
-0.101212
-0.101082
-0.100928
-0.100748
-0.10054
-0.100304
-0.100038
-0.0997415
-0.0994137
-0.099053
-0.0986575
-0.0982247
-0.0977514
-0.0972338
-0.0966676
-0.0960475
-0.0953671
-0.094618
-0.0937907
-0.0928739
-0.0918549
-0.0907191
-0.0894507
-0.0880302
-0.0864348
-0.0846378
-0.0826107
-0.0803224
-0.0777431
-0.0748437
-0.0716005
-0.0679951
-0.064023
-0.059692
-0.0550276
-0.0500672
-0.0448668
-0.0394909
-0.0340205
-0.0285373
-0.0231333
-0.0178907
-0.0128955
-0.00821421
-0.00391322
-3.19563e-05
0.00339105
0.00634432
0.00881392
0.0108132
0.0123483
0.0134524
0.0141451
0.0144723
0.0144591
0.0141575
0.0135918
0.0128148
0.0118453
0.0107333
0.0094891
0.00815876
0.0067434
0.00528614
0.00378024
0.00226562
0.000725856
-0.120866
-0.105969
-0.104044
-0.102568
-0.101653
-0.101224
-0.101049
-0.100988
-0.100972
-0.100977
-0.101017
-0.101078
-0.101141
-0.101203
-0.101258
-0.101306
-0.101343
-0.101366
-0.101371
-0.101352
-0.101307
-0.101232
-0.101128
-0.100992
-0.100825
-0.100626
-0.100395
-0.10013
-0.0998268
-0.0994842
-0.0991002
-0.0986733
-0.0982018
-0.0976838
-0.0971167
-0.0964968
-0.0958201
-0.0950817
-0.0942762
-0.0933969
-0.0924362
-0.0913849
-0.0902327
-0.0889679
-0.087577
-0.086044
-0.0843518
-0.0824824
-0.0804163
-0.0781334
-0.0756132
-0.0728374
-0.06979
-0.0664612
-0.0628471
-0.0589552
-0.0548025
-0.0504194
-0.0458445
-0.0411293
-0.0363305
-0.0315158
-0.0267518
-0.0221116
-0.0176581
-0.0134559
-0.00955207
-0.00599505
-0.00280881
-1.70812e-05
0.002382
0.00438202
0.00600263
0.00724974
0.00815855
0.00874344
0.00905045
0.00909588
0.00893154
0.00857025
0.00806634
0.00742469
0.00669976
0.00588488
0.00503394
0.00412693
0.00321877
0.0022764
0.00135779
0.000412703
-0.088476
-0.0949113
-0.0974177
-0.0982664
-0.0987207
-0.0991293
-0.0995079
-0.099827
-0.100103
-0.100344
-0.100551
-0.100729
-0.10088
-0.101009
-0.101118
-0.101206
-0.10127
-0.101306
-0.101309
-0.101273
-0.101197
-0.101078
-0.100913
-0.100704
-0.100448
-0.100148
-0.0998024
-0.0994096
-0.0989678
-0.0984755
-0.097931
-0.0973329
-0.0966787
-0.0959656
-0.0951908
-0.0943511
-0.093443
-0.0924622
-0.0914035
-0.0902611
-0.0890284
-0.0876979
-0.086261
-0.0847086
-0.0830301
-0.0812148
-0.0792512
-0.077128
-0.0748337
-0.0723571
-0.0696878
-0.0668174
-0.0637407
-0.0604574
-0.0569727
-0.0532995
-0.0494574
-0.0454752
-0.0413878
-0.0372383
-0.0330727
-0.0289447
-0.0249067
-0.0210147
-0.0173161
-0.0138586
-0.0106754
-0.0077977
-0.00523737
-0.00300683
-0.00109804
0.000489046
0.00177602
0.00277054
0.0035068
0.00399782
0.0042874
0.00438755
0.00434733
0.00417209
0.00391438
0.00356845
0.0031903
0.0027585
0.00233365
0.0018734
0.00144601
0.000984099
0.000570135
0.000107178
-0.0826299
-0.0903981
-0.0943742
-0.0957963
-0.096233
-0.0965764
-0.0970833
-0.09771
-0.0983433
-0.0989098
-0.0993847
-0.0997755
-0.1001
-0.100373
-0.100603
-0.100789
-0.100928
-0.101014
-0.101042
-0.101006
-0.100904
-0.100734
-0.100495
-0.100187
-0.0998126
-0.0993725
-0.098868
-0.0982999
-0.0976684
-0.0969736
-0.0962153
-0.0953927
-0.0945047
-0.0935498
-0.0925262
-0.0914315
-0.0902632
-0.0890177
-0.0876914
-0.0862797
-0.0847777
-0.0831801
-0.0814813
-0.0796752
-0.0777557
-0.0757168
-0.0735524
-0.0712569
-0.0688251
-0.0662523
-0.0635349
-0.0606712
-0.0576624
-0.0545131
-0.0512326
-0.047835
-0.0443401
-0.0407742
-0.0371685
-0.0335601
-0.0299888
-0.0264963
-0.0231225
-0.0199075
-0.0168856
-0.0140883
-0.0115376
-0.00925192
-0.00723709
-0.00549707
-0.00402033
-0.00279762
-0.00180605
-0.00103278
-0.00044723
-3.41994e-05
0.000244418
0.000401583
0.000479176
0.000480594
0.00044951
0.000374935
0.000306024
0.000212952
0.000155535
7.50701e-05
4.8821e-05
-2.54243e-05
-3.66076e-05
-0.000143432
-0.0724826
-0.0796552
-0.0849983
-0.0885001
-0.0906617
-0.0921369
-0.0933736
-0.0945516
-0.0956842
-0.0967261
-0.0976392
-0.0984132
-0.0990583
-0.0995916
-0.100027
-0.100372
-0.100628
-0.100792
-0.10086
-0.10083
-0.1007
-0.100471
-0.100146
-0.0997255
-0.0992147
-0.0986169
-0.0979359
-0.097175
-0.0963372
-0.0954247
-0.0944394
-0.0933822
-0.0922538
-0.0910538
-0.0897815
-0.0884354
-0.0870137
-0.085514
-0.0839337
-0.0822698
-0.0805191
-0.0786785
-0.0767449
-0.0747155
-0.0725877
-0.0703596
-0.0680297
-0.0655973
-0.0630625
-0.0604264
-0.0576912
-0.0548611
-0.0519415
-0.0489402
-0.0458676
-0.0427375
-0.0395682
-0.0363831
-0.0332106
-0.0300838
-0.0270377
-0.024107
-0.0213225
-0.0187102
-0.0162895
-0.0140752
-0.0120772
-0.0103042
-0.00875918
-0.00744067
-0.00633422
-0.00542021
-0.00467148
-0.00406796
-0.00358439
-0.00320499
-0.0029021
-0.00266096
-0.00245177
-0.0022694
-0.00208697
-0.00191451
-0.00172145
-0.00153456
-0.0013096
-0.00110237
-0.000843199
-0.000643264
-0.000377974
-0.000260455
-0.0673282
-0.0739569
-0.0794404
-0.0836756
-0.0867859
-0.0890806
-0.0908996
-0.0924815
-0.0939341
-0.0952753
-0.0964849
-0.0975423
-0.098441
-0.0991869
-0.0997904
-0.10026
-0.100601
-0.100813
-0.100895
-0.100846
-0.100667
-0.100359
-0.0999283
-0.0993787
-0.0987169
-0.0979493
-0.0970822
-0.0961213
-0.095072
-0.0939389
-0.0927258
-0.0914355
-0.0900699
-0.0886299
-0.0871155
-0.0855261
-0.0838606
-0.0821175
-0.0802952
-0.0783922
-0.0764069
-0.0743385
-0.0721863
-0.0699503
-0.0676314
-0.0652313
-0.0627529
-0.0601999
-0.0575777
-0.0548926
-0.0521521
-0.0493648
-0.0465398
-0.0436866
-0.040816
-0.0379405
-0.0350756
-0.0322409
-0.0294612
-0.0267666
-0.0241899
-0.0217629
-0.0195104
-0.0174457
-0.0155692
-0.013874
-0.012353
-0.0110061
-0.00983625
-0.00884265
-0.00801065
-0.00731366
-0.00671731
-0.00619518
-0.00572923
-0.00531188
-0.00493148
-0.00457847
-0.00423544
-0.00389537
-0.0035443
-0.00318617
-0.00280977
-0.00243124
-0.00203272
-0.00164808
-0.00123867
-0.000885409
-0.000492262
-0.000269261
-0.0628792
-0.0691678
-0.0746503
-0.0792325
-0.0829229
-0.0858547
-0.0882371
-0.0902689
-0.0920823
-0.0937357
-0.0952368
-0.0965722
-0.0977285
-0.0987009
-0.099492
-0.100107
-0.100552
-0.100827
-0.100935
-0.100876
-0.100653
-0.100272
-0.0997391
-0.0990631
-0.0982534
-0.0973194
-0.0962698
-0.0951128
-0.0938561
-0.0925066
-0.0910706
-0.0895529
-0.0879569
-0.0862848
-0.0845373
-0.0827147
-0.0808164
-0.0788419
-0.0767905
-0.074662
-0.0724569
-0.0701761
-0.0678215
-0.0653963
-0.0629043
-0.0603509
-0.0577427
-0.055088
-0.0523971
-0.0496815
-0.0469545
-0.0442289
-0.0415171
-0.0388299
-0.0361775
-0.0335701
-0.0310188
-0.0285364
-0.0261395
-0.0238515
-0.0217027
-0.019724
-0.0179374
-0.0163469
-0.0149325
-0.0136613
-0.0125072
-0.011463
-0.0105346
-0.00972674
-0.00903381
-0.00843217
-0.00788472
-0.0073598
-0.00684299
-0.0063357
-0.00584297
-0.0053707
-0.0049174
-0.00448038
-0.00405056
-0.00362401
-0.00319098
-0.00275421
-0.00230563
-0.00185892
-0.00140254
-0.000978425
-0.000547549
-0.00025938
-0.0593567
-0.0654512
-0.0709254
-0.0757022
-0.0797588
-0.0831496
-0.0859955
-0.0884413
-0.0906072
-0.0925643
-0.0943386
-0.0959278
-0.0973193
-0.0985023
-0.0994719
-0.100228
-0.100772
-0.101106
-0.101233
-0.101155
-0.100877
-0.100408
-0.0997593
-0.0989434
-0.0979742
-0.0968645
-0.0956255
-0.0942674
-0.0928003
-0.0912334
-0.0895749
-0.0878316
-0.0860086
-0.0841094
-0.0821361
-0.0800898
-0.0779707
-0.0757792
-0.0735157
-0.0711814
-0.0687782
-0.0663095
-0.0637799
-0.0611956
-0.0585642
-0.0558943
-0.0531962
-0.0504813
-0.0477639
-0.045061
-0.0423911
-0.0397712
-0.0372152
-0.0347332
-0.0323325
-0.0300187
-0.0277969
-0.0256711
-0.0236449
-0.0217283
-0.0199452
-0.0183224
-0.01688
-0.0156225
-0.0145197
-0.0135245
-0.0125989
-0.0117285
-0.0109157
-0.0101606
-0.00947019
-0.00884725
-0.00827565
-0.00773235
-0.00720697
-0.00669621
-0.00619145
-0.00569144
-0.00519694
-0.00470863
-0.00422552
-0.00374841
-0.00327614
-0.00280968
-0.00234465
-0.00188353
-0.00142358
-0.000983813
-0.000556939
-0.000253229
-0.0565345
-0.0625355
-0.0680129
-0.0729012
-0.0771798
-0.0808815
-0.0840829
-0.0868828
-0.0893738
-0.0916216
-0.0936586
-0.0954897
-0.0971051
-0.0984908
-0.0996353
-0.100532
-0.101178
-0.101573
-0.101718
-0.101619
-0.101282
-0.100719
-0.0999453
-0.0989812
-0.0978462
-0.0965572
-0.0951281
-0.0935717
-0.0918998
-0.090124
-0.0882546
-0.0863002
-0.0842679
-0.0821627
-0.079988
-0.077746
-0.0754381
-0.0730658
-0.0706306
-0.0681351
-0.065583
-0.0629797
-0.0603325
-0.0576508
-0.0549461
-0.0522308
-0.0495176
-0.0468189
-0.0441501
-0.0415317
-0.0389848
-0.0365261
-0.034167
-0.0319133
-0.0297663
-0.0277246
-0.0257871
-0.0239548
-0.0222284
-0.0206102
-0.0191081
-0.0177368
-0.0165034
-0.0153962
-0.0143987
-0.0134924
-0.0126566
-0.0118765
-0.0111481
-0.0104765
-0.00983504
-0.00919882
-0.00855923
-0.00792498
-0.00731086
-0.00672501
-0.00617157
-0.00565213
-0.00515973
-0.00468452
-0.00421886
-0.00375694
-0.00329638
-0.0028363
-0.00237548
-0.00191604
-0.00145937
-0.00101601
-0.000600602
-0.000249711
-0.0542193
-0.0602064
-0.0656987
-0.070652
-0.0750666
-0.0789799
-0.082452
-0.0855504
-0.0883386
-0.0908662
-0.0931619
-0.0952323
-0.0970688
-0.0986551
-0.0999745
-0.101013
-0.101764
-0.102222
-0.102388
-0.102268
-0.101871
-0.101213
-0.100314
-0.0992019
-0.0979023
-0.0964377
-0.0948274
-0.0930887
-0.091237
-0.089286
-0.0872474
-0.085131
-0.0829443
-0.0806928
-0.0783805
-0.07601
-0.0735837
-0.0711036
-0.0685725
-0.0659937
-0.0633721
-0.0607144
-0.0580292
-0.0553277
-0.0526236
-0.0499325
-0.0472691
-0.0446453
-0.0420813
-0.0395983
-0.037212
-0.0349317
-0.0327597
-0.030694
-0.0287299
-0.0268593
-0.0250793
-0.0233966
-0.0218275
-0.0203896
-0.0190908
-0.017927
-0.0168819
-0.0158932
-0.014913
-0.0139293
-0.0129578
-0.0120346
-0.0111949
-0.0104353
-0.00975049
-0.00911949
-0.00851373
-0.00792239
-0.00734355
-0.00677995
-0.00623883
-0.00572023
-0.00521948
-0.00473179
-0.00425338
-0.00378185
-0.00331569
-0.00285397
-0.00239558
-0.00194106
-0.00149183
-0.00105628
-0.00064818
-0.000253377
-0.0527492
-0.0587106
-0.0641778
-0.0691428
-0.0736301
-0.0776811
-0.0813445
-0.0846678
-0.0876934
-0.0904553
-0.0929734
-0.095252
-0.0972813
-0.0990429
-0.100515
-0.10168
-0.102521
-0.10303
-0.103207
-0.103059
-0.1026
-0.101852
-0.100843
-0.0995971
-0.0981438
-0.0965141
-0.0947372
-0.092839
-0.0908403
-0.088758
-0.0866048
-0.0843903
-0.0821211
-0.0798016
-0.0774347
-0.0750221
-0.0725654
-0.0700659
-0.0675258
-0.064948
-0.0623368
-0.0596986
-0.0570413
-0.0543758
-0.0517154
-0.0490766
-0.0464792
-0.0439476
-0.0415036
-0.0391646
-0.0369422
-0.0348395
-0.0328495
-0.0309559
-0.0291371
-0.0273741
-0.0256471
-0.0239542
-0.0223131
-0.0207544
-0.0193118
-0.0180098
-0.0168359
-0.0157733
-0.0147834
-0.0138477
-0.0129544
-0.0121041
-0.0113051
-0.0105668
-0.00987965
-0.00922726
-0.00859724
-0.0079852
-0.00739258
-0.00682223
-0.00627534
-0.00575031
-0.005244
-0.00475218
-0.00427084
-0.00379711
-0.00332943
-0.00286739
-0.00241126
-0.00196172
-0.00152
-0.00109113
-0.00068096
-0.000259818
-0.0518693
-0.0578535
-0.0633269
-0.0683162
-0.0728614
-0.0770055
-0.0807919
-0.084264
-0.0874574
-0.0903936
-0.0930803
-0.0955131
-0.0976781
-0.0995557
-0.101124
-0.102364
-0.103259
-0.103802
-0.103994
-0.103842
-0.103365
-0.102588
-0.101539
-0.100252
-0.0987595
-0.0970927
-0.0952812
-0.0933507
-0.0913231
-0.0892161
-0.0870429
-0.0848136
-0.0825348
-0.0802109
-0.0778448
-0.0754381
-0.0729918
-0.0705071
-0.0679855
-0.0654294
-0.0628423
-0.0602294
-0.0575978
-0.0549566
-0.0523175
-0.0496947
-0.0471047
-0.0445654
-0.0420946
-0.0397084
-0.0374192
-0.0352338
-0.033152
-0.0311678
-0.0292796
-0.0274521
-0.0256867
-0.0239874
-0.0223691
-0.0208534
-0.0194568
-0.0181895
-0.0170399
-0.0159761
-0.0149662
-0.013995
-0.0130632
-0.0121828
-0.0113646
-0.0106101
-0.00991046
-0.00925048
-0.00861737
-0.00800565
-0.00741484
-0.00684621
-0.00630041
-0.00577551
-0.00526792
-0.00477371
-0.00428955
-0.00381317
-0.00334337
-0.00288009
-0.00242423
-0.00197741
-0.00154107
-0.00111635
-0.000701437
-0.000268498
)
;

boundaryField
{
    fixedWalls
    {
        type            zeroGradient;
    }
    inflowWall
    {
        type            zeroGradient;
    }
    outflowWall
    {
        type            fixedValue;
        value           uniform 0;
    }
    frontAndBack
    {
        type            empty;
    }
}


// ************************************************************************* //
