/*--------------------------------*- C++ -*----------------------------------*\
| =========                 |                                                 |
| \\      /  F ield         | OpenFOAM: The Open Source CFD Toolbox           |
|  \\    /   O peration     | Version:  2306                                  |
|   \\  /    A nd           | Website:  www.openfoam.com                      |
|    \\/     M anipulation  |                                                 |
\*---------------------------------------------------------------------------*/
FoamFile
{
    version     2.0;
    format      ascii;
    arch        "LSB;label=32;scalar=64";
    class       volVectorField;
    location    "7";
    object      U;
}
// * * * * * * * * * * * * * * * * * * * * * * * * * * * * * * * * * * * * * //

dimensions      [0 1 -1 0 0 0 0];

internalField   nonuniform List<vector> 
1900
(
(0.984274 0.00729065 0)
(0.961757 0.0216827 0)
(0.952322 0.0181796 0)
(0.918695 0.025303 0)
(0.903399 0.0154482 0)
(0.863046 0.025749 0)
(0.85222 0.0116117 0)
(0.811905 0.0267299 0)
(0.809556 0.00458717 0)
(0.770342 0.0259921 0)
(1.00256 0.0115601 0)
(1.00446 0.0258636 0)
(1.01943 0.0289697 0)
(1.02197 0.0304636 0)
(1.03486 0.0280167 0)
(1.03395 0.0284347 0)
(1.04402 0.0258074 0)
(1.04274 0.0251262 0)
(1.05112 0.0207143 0)
(1.05218 0.016272 0)
(1.00048 0.00388847 0)
(1.00419 0.0111589 0)
(1.01255 0.0140069 0)
(1.02112 0.0157984 0)
(1.03153 0.01473 0)
(1.04052 0.0144431 0)
(1.04996 0.01241 0)
(1.05837 0.0109759 0)
(1.06684 0.00737376 0)
(1.07466 0.0032353 0)
(1.00007 0.0020789 0)
(1.00313 0.00584803 0)
(1.00888 0.00806413 0)
(1.01648 0.00904878 0)
(1.02527 0.00857546 0)
(1.0343 0.00748296 0)
(1.04323 0.00571213 0)
(1.05179 0.00356044 0)
(1.05996 0.000747789 0)
(1.06763 -0.00275068 0)
(1.00003 0.000426408 0)
(1.00261 0.00117823 0)
(1.00738 0.0014451 0)
(1.01402 0.00116967 0)
(1.02191 0.00027705 0)
(1.03035 -0.00107891 0)
(1.03879 -0.00286372 0)
(1.04691 -0.00505276 0)
(1.05459 -0.00769382 0)
(1.06174 -0.0108455 0)
(1.00003 -0.00105863 0)
(1.00255 -0.00302062 0)
(1.0072 -0.00473788 0)
(1.01366 -0.00617054 0)
(1.02133 -0.00746407 0)
(1.02949 -0.00881848 0)
(1.03759 -0.0104195 0)
(1.04533 -0.0123766 0)
(1.0526 -0.0147303 0)
(1.05939 -0.0174509 0)
(1.00003 -0.00270851 0)
(1.00303 -0.00742575 0)
(1.00836 -0.0110471 0)
(1.01546 -0.0134779 0)
(1.02347 -0.0150952 0)
(1.03164 -0.0164478 0)
(1.03951 -0.0179404 0)
(1.04692 -0.0197506 0)
(1.05385 -0.021871 0)
(1.06034 -0.0242118 0)
(1.00004 -0.0047672 0)
(1.00441 -0.0122267 0)
(1.01138 -0.0169055 0)
(1.0198 -0.0193304 0)
(1.0284 -0.0206495 0)
(1.03641 -0.0218112 0)
(1.04362 -0.0232637 0)
(1.05011 -0.0250335 0)
(1.05599 -0.0269791 0)
(1.06132 -0.0289666 0)
(1.00006 -0.0121173 0)
(1.00722 -0.025947 0)
(1.01559 -0.0314207 0)
(1.02288 -0.0325646 0)
(1.02795 -0.0326426 0)
(1.03075 -0.0330104 0)
(1.03178 -0.0337804 0)
(1.03149 -0.0346888 0)
(1.0301 -0.03552 0)
(1.02763 -0.0362141 0)
(0.980777 -0.00916306 0)
(0.964588 -0.01882 0)
(0.945465 -0.0220433 0)
(0.920804 -0.0221808 0)
(0.892025 -0.0217323 0)
(0.861726 -0.0215682 0)
(0.831506 -0.0215964 0)
(0.801846 -0.0215814 0)
(0.772677 -0.021399 0)
(0.743756 -0.0210647 0)
(0.000207223 -0.000110085 0)
(0.000342408 -2.06323e-05 0)
(7.4996e-05 2.86126e-05 0)
(-0.000414398 5.79402e-05 0)
(-0.00106739 7.60023e-05 0)
(-0.0018414 9.3599e-05 0)
(-0.0027232 0.000114204 0)
(-0.003708 0.000136761 0)
(-0.00479065 0.000160055 0)
(-0.00596489 0.000183378 0)
(-0.00722368 0.000206301 0)
(-0.0085595 0.000228523 0)
(-0.00996472 0.000249799 0)
(-0.0114318 0.000269931 0)
(-0.0129533 0.000288773 0)
(-0.0145223 0.000306234 0)
(-0.0161322 0.000322274 0)
(-0.0177769 0.000336873 0)
(-0.0194507 0.000350004 0)
(-0.0211484 0.000361675 0)
(-0.0228656 0.000371919 0)
(-0.024599 0.000380803 0)
(-0.0263459 0.000388423 0)
(-0.0281047 0.000394894 0)
(-0.0298751 0.000400339 0)
(-0.0316578 0.000404914 0)
(-0.0334548 0.000408832 0)
(-0.0352695 0.000412345 0)
(-0.0371069 0.000415712 0)
(-0.0389733 0.000419195 0)
(-0.0408767 0.000423013 0)
(-0.0428263 0.000427295 0)
(-0.0448325 0.000432065 0)
(-0.0469071 0.00043735 0)
(-0.0490631 0.000443404 0)
(-0.0513159 0.000450915 0)
(-0.0536837 0.000461168 0)
(-0.0561878 0.00047638 0)
(-0.0588546 0.00050021 0)
(-0.0617158 0.000538288 0)
(-0.0648109 0.000599034 0)
(-0.0681887 0.000694445 0)
(-0.071909 0.000840006 0)
(-0.0760423 0.00105285 0)
(-0.0806648 0.0013486 0)
(-0.0858502 0.0017377 0)
(-0.0916573 0.00222071 0)
(-0.0981161 0.00278515 0)
(-0.105215 0.00340364 0)
(-0.112888 0.00403167 0)
(-0.120997 0.00460807 0)
(-0.129333 0.00506966 0)
(-0.137629 0.00536183 0)
(-0.145571 0.00544874 0)
(-0.15282 0.00531269 0)
(-0.159043 0.00497283 0)
(-0.163951 0.00448132 0)
(-0.167295 0.00387572 0)
(-0.168821 0.00312146 0)
(-0.168397 0.00221687 0)
(-0.165959 0.00120408 0)
(-0.161473 0.000143301 0)
(-0.154925 -0.000940234 0)
(-0.146407 -0.00199713 0)
(-0.136023 -0.00299357 0)
(-0.123943 -0.00392028 0)
(-0.110328 -0.00473078 0)
(-0.0953677 -0.0054365 0)
(-0.0793491 -0.00600071 0)
(-0.0622785 -0.0065215 0)
(-0.0447549 -0.00676808 0)
(-0.0264915 -0.00699381 0)
(-0.00846311 -0.00705228 0)
(0.0102336 -0.00706103 0)
(0.0280443 -0.00692064 0)
(0.0465126 -0.00680235 0)
(0.0633851 -0.0065008 0)
(0.0811367 -0.00628536 0)
(0.0966339 -0.00588681 0)
(0.1134 -0.00563922 0)
(0.127215 -0.00520121 0)
(0.142968 -0.00498151 0)
(0.154945 -0.00455936 0)
(0.169939 -0.00442071 0)
(0.17998 -0.00406676 0)
(0.194862 -0.00405518 0)
(0.202727 -0.00381213 0)
(0.218839 -0.00401057 0)
(0.223689 -0.00388999 0)
(0.243684 -0.00468922 0)
(5.93501e-05 -0.000514454 0)
(-0.000535802 0.000151601 0)
(-0.00204466 0.000725691 0)
(-0.00397267 0.00113016 0)
(-0.00628576 0.00140934 0)
(-0.00891088 0.00163169 0)
(-0.0118105 0.00183322 0)
(-0.0149562 0.00202179 0)
(-0.0183187 0.00219733 0)
(-0.0218697 0.00235882 0)
(-0.0255826 0.00250543 0)
(-0.0294313 0.00263686 0)
(-0.0333915 0.00275334 0)
(-0.0374405 0.00285535 0)
(-0.0415578 0.00294362 0)
(-0.045725 0.00301903 0)
(-0.0499263 0.00308255 0)
(-0.0541479 0.00313513 0)
(-0.0583787 0.00317776 0)
(-0.0626096 0.0032118 0)
(-0.0668346 0.00323891 0)
(-0.0710499 0.00326093 0)
(-0.0752546 0.00327985 0)
(-0.0794508 0.0032978 0)
(-0.0836426 0.00331698 0)
(-0.0878372 0.0033398 0)
(-0.0920443 0.00336893 0)
(-0.0962762 0.00340721 0)
(-0.100548 0.00345751 0)
(-0.104876 0.00352273 0)
(-0.109281 0.00360568 0)
(-0.113782 0.00370901 0)
(-0.118401 0.00383528 0)
(-0.12316 0.00398731 0)
(-0.128083 0.00416871 0)
(-0.13319 0.004384 0)
(-0.138504 0.00463838 0)
(-0.144043 0.00493787 0)
(-0.149823 0.00528959 0)
(-0.155852 0.00570141 0)
(-0.162133 0.00618191 0)
(-0.168656 0.00673981 0)
(-0.175399 0.0073817 0)
(-0.182324 0.0081071 0)
(-0.189372 0.00890273 0)
(-0.196453 0.00973916 0)
(-0.203448 0.0105675 0)
(-0.210205 0.0113227 0)
(-0.216544 0.0119307 0)
(-0.222267 0.0123114 0)
(-0.227147 0.0123729 0)
(-0.230945 0.0120448 0)
(-0.233417 0.0112834 0)
(-0.234339 0.0100808 0)
(-0.233477 0.00841356 0)
(-0.230645 0.00629671 0)
(-0.225733 0.00377542 0)
(-0.218724 0.000965433 0)
(-0.209516 -0.0020723 0)
(-0.198146 -0.00523502 0)
(-0.184537 -0.00846612 0)
(-0.16888 -0.0116423 0)
(-0.151107 -0.0147473 0)
(-0.13153 -0.0176606 0)
(-0.110167 -0.0202674 0)
(-0.087318 -0.0226436 0)
(-0.06318 -0.0247033 0)
(-0.0378095 -0.0264738 0)
(-0.0119746 -0.0278919 0)
(0.0152017 -0.0290168 0)
(0.041916 -0.0297064 0)
(0.0701938 -0.030207 0)
(0.0965244 -0.0302591 0)
(0.125183 -0.0302158 0)
(0.150424 -0.0297017 0)
(0.178944 -0.0292669 0)
(0.202422 -0.0283275 0)
(0.230448 -0.0276187 0)
(0.251612 -0.0263996 0)
(0.279077 -0.0255762 0)
(0.29748 -0.0242258 0)
(0.324597 -0.0234439 0)
(0.339875 -0.0221006 0)
(0.36716 -0.0215124 0)
(0.378997 -0.0203013 0)
(0.407281 -0.020064 0)
(0.415386 -0.0190987 0)
(0.445788 -0.0194165 0)
(0.449889 -0.018829 0)
(0.483596 -0.0200844 0)
(-0.000163539 0.000435148 0)
(-0.00196337 0.00231385 0)
(-0.00546285 0.00353882 0)
(-0.00943757 0.00435894 0)
(-0.013852 0.00499895 0)
(-0.0186042 0.00556553 0)
(-0.023652 0.00608434 0)
(-0.0289551 0.00655518 0)
(-0.0344596 0.00697335 0)
(-0.0401131 0.00733711 0)
(-0.0458679 0.0076464 0)
(-0.0516811 0.00790319 0)
(-0.0575155 0.00811098 0)
(-0.0633396 0.00827391 0)
(-0.0691272 0.00839656 0)
(-0.0748572 0.00848377 0)
(-0.0805132 0.00854049 0)
(-0.086083 0.00857175 0)
(-0.0915575 0.00858273 0)
(-0.0969307 0.00857856 0)
(-0.1022 0.00856439 0)
(-0.107367 0.00854545 0)
(-0.112433 0.008527 0)
(-0.117403 0.00851425 0)
(-0.122284 0.00851227 0)
(-0.127084 0.00852612 0)
(-0.13181 0.00856101 0)
(-0.136471 0.00862208 0)
(-0.141077 0.00871391 0)
(-0.145634 0.00884059 0)
(-0.15015 0.00900539 0)
(-0.154629 0.00921057 0)
(-0.159072 0.00945722 0)
(-0.163475 0.00974543 0)
(-0.167832 0.0100748 0)
(-0.17213 0.0104444 0)
(-0.17635 0.010852 0)
(-0.180466 0.0112929 0)
(-0.184445 0.0117611 0)
(-0.188241 0.0122486 0)
(-0.191798 0.0127453 0)
(-0.195047 0.0132401 0)
(-0.197907 0.0137204 0)
(-0.200287 0.0141677 0)
(-0.202081 0.0145471 0)
(-0.203172 0.0148125 0)
(-0.203425 0.0149025 0)
(-0.202696 0.0147461 0)
(-0.200837 0.0142675 0)
(-0.197734 0.0134111 0)
(-0.193231 0.0120702 0)
(-0.187221 0.0101864 0)
(-0.179566 0.00770489 0)
(-0.17029 0.004641 0)
(-0.159269 0.00101519 0)
(-0.146559 -0.00310295 0)
(-0.132028 -0.00771663 0)
(-0.11582 -0.0126585 0)
(-0.0977 -0.0178549 0)
(-0.0781449 -0.0230763 0)
(-0.0567687 -0.0282959 0)
(-0.0342711 -0.033311 0)
(-0.0101413 -0.0381538 0)
(0.0149383 -0.0425631 0)
(0.0413764 -0.0465915 0)
(0.0685911 -0.0500904 0)
(0.0962819 -0.0531187 0)
(0.125006 -0.0555759 0)
(0.15313 -0.0575551 0)
(0.182865 -0.0589343 0)
(0.210533 -0.0597455 0)
(0.240753 -0.0601959 0)
(0.26723 -0.0599995 0)
(0.297403 -0.0596072 0)
(0.322029 -0.0585605 0)
(0.351816 -0.0575234 0)
(0.374073 -0.0558437 0)
(0.403312 -0.0543918 0)
(0.422797 -0.0523105 0)
(0.451537 -0.0506925 0)
(0.467968 -0.0484421 0)
(0.496464 -0.0469028 0)
(0.509658 -0.0446978 0)
(0.53836 -0.0434708 0)
(0.548216 -0.0415066 0)
(0.577748 -0.0408254 0)
(0.584231 -0.039296 0)
(0.615354 -0.0394229 0)
(0.618464 -0.0385557 0)
(0.651982 -0.0397932 0)
(-0.000923673 0.00123864 0)
(-0.00480827 0.00513993 0)
(-0.0107381 0.0076243 0)
(-0.0168161 0.00928976 0)
(-0.0232191 0.0105276 0)
(-0.029896 0.0115104 0)
(-0.036761 0.012311 0)
(-0.0437165 0.0129663 0)
(-0.0506718 0.0134903 0)
(-0.0575549 0.0138951 0)
(-0.0643105 0.0141928 0)
(-0.0708949 0.0143953 0)
(-0.0772759 0.0145143 0)
(-0.0834311 0.0145611 0)
(-0.0893453 0.0145469 0)
(-0.0950094 0.0144821 0)
(-0.100419 0.0143766 0)
(-0.105574 0.0142394 0)
(-0.110475 0.0140789 0)
(-0.115126 0.0139031 0)
(-0.119531 0.0137195 0)
(-0.123698 0.0135349 0)
(-0.12763 0.0133558 0)
(-0.131335 0.0131881 0)
(-0.134815 0.0130367 0)
(-0.138075 0.012906 0)
(-0.141116 0.0128001 0)
(-0.143936 0.0127226 0)
(-0.146534 0.0126758 0)
(-0.148903 0.0126608 0)
(-0.151035 0.012677 0)
(-0.152917 0.0127223 0)
(-0.154531 0.0127924 0)
(-0.155855 0.0128812 0)
(-0.15686 0.0129819 0)
(-0.157515 0.0130878 0)
(-0.157783 0.0131914 0)
(-0.157621 0.0132799 0)
(-0.156977 0.0133395 0)
(-0.155794 0.0133546 0)
(-0.154004 0.0133072 0)
(-0.151528 0.0131788 0)
(-0.148281 0.0129522 0)
(-0.14419 0.0126136 0)
(-0.139154 0.0121117 0)
(-0.133091 0.0113952 0)
(-0.125894 0.0104036 0)
(-0.117479 0.00907493 0)
(-0.107707 0.00727169 0)
(-0.0966637 0.00498914 0)
(-0.0841594 0.00215709 0)
(-0.0703007 -0.0012385 0)
(-0.0549173 -0.00527308 0)
(-0.0382643 -0.00991577 0)
(-0.019985 -0.0151747 0)
(-0.00054723 -0.0208787 0)
(0.0205089 -0.0269712 0)
(0.0424227 -0.0332212 0)
(0.0660418 -0.0396684 0)
(0.0901826 -0.0460457 0)
(0.11599 -0.0524114 0)
(0.142041 -0.0584247 0)
(0.169541 -0.0642512 0)
(0.197141 -0.0694103 0)
(0.225661 -0.0741738 0)
(0.254407 -0.0782156 0)
(0.283278 -0.0816972 0)
(0.312639 -0.0843928 0)
(0.341101 -0.0864332 0)
(0.370581 -0.0877333 0)
(0.397919 -0.0883361 0)
(0.427064 -0.0883498 0)
(0.452654 -0.0876725 0)
(0.481117 -0.0866 0)
(0.504436 -0.0848707 0)
(0.532011 -0.0829871 0)
(0.55268 -0.0804961 0)
(0.579326 -0.0781186 0)
(0.597093 -0.0751741 0)
(0.622932 -0.0726283 0)
(0.637665 -0.0695328 0)
(0.662978 -0.0671319 0)
(0.674639 -0.0641636 0)
(0.699845 -0.062198 0)
(0.70846 -0.0596081 0)
(0.734094 -0.058353 0)
(0.739727 -0.0563809 0)
(0.766412 -0.0561154 0)
(0.769128 -0.0550068 0)
(0.797542 -0.0560179 0)
(-0.00128092 0.00694721 0)
(-0.00687645 0.0138165 0)
(-0.0155072 0.0164527 0)
(-0.0240068 0.0176151 0)
(-0.0325146 0.0184497 0)
(-0.0407838 0.019231 0)
(-0.0486858 0.01991 0)
(-0.0561797 0.0204096 0)
(-0.0632355 0.0207109 0)
(-0.0698214 0.0208399 0)
(-0.0759197 0.0208249 0)
(-0.0815253 0.0206912 0)
(-0.0866424 0.0204608 0)
(-0.0912819 0.0201534 0)
(-0.095459 0.0197857 0)
(-0.0991916 0.0193724 0)
(-0.102499 0.0189261 0)
(-0.1054 0.0184568 0)
(-0.107912 0.0179728 0)
(-0.110053 0.0174821 0)
(-0.111836 0.0169921 0)
(-0.113274 0.0165088 0)
(-0.114379 0.0160372 0)
(-0.115157 0.0155814 0)
(-0.115614 0.015144 0)
(-0.11575 0.0147262 0)
(-0.115562 0.0143288 0)
(-0.115046 0.0139533 0)
(-0.11419 0.0135983 0)
(-0.112983 0.0132607 0)
(-0.111408 0.0129361 0)
(-0.109443 0.0126181 0)
(-0.107064 0.012298 0)
(-0.104242 0.0119655 0)
(-0.100938 0.0116095 0)
(-0.0971156 0.0112225 0)
(-0.0927399 0.0107984 0)
(-0.0877605 0.0103148 0)
(-0.0821307 0.0097516 0)
(-0.0757976 0.00908921 0)
(-0.0686965 0.00830418 0)
(-0.0607566 0.0073709 0)
(-0.051875 0.0062465 0)
(-0.0420747 0.00489783 0)
(-0.0312196 0.00329842 0)
(-0.0192813 0.00141607 0)
(-0.00612397 -0.00080966 0)
(0.0081555 -0.00342486 0)
(0.0237449 -0.0065186 0)
(0.0404325 -0.0101271 0)
(0.0586124 -0.0143391 0)
(0.0778353 -0.0191104 0)
(0.0985986 -0.0245028 0)
(0.120135 -0.0303851 0)
(0.14328 -0.0367998 0)
(0.166876 -0.0435735 0)
(0.192146 -0.0507386 0)
(0.217491 -0.0579881 0)
(0.244511 -0.0654135 0)
(0.271277 -0.0726343 0)
(0.299614 -0.0797847 0)
(0.327401 -0.0864346 0)
(0.356523 -0.0927724 0)
(0.384867 -0.0983445 0)
(0.414155 -0.103398 0)
(0.44255 -0.10753 0)
(0.471353 -0.111008 0)
(0.499292 -0.113492 0)
(0.526948 -0.115258 0)
(0.553985 -0.116069 0)
(0.579916 -0.116167 0)
(0.605719 -0.115439 0)
(0.629462 -0.114063 0)
(0.653845 -0.112058 0)
(0.675067 -0.1095 0)
(0.697989 -0.106564 0)
(0.71649 -0.103183 0)
(0.738054 -0.099704 0)
(0.75375 -0.0958773 0)
(0.774184 -0.0922454 0)
(0.787079 -0.088335 0)
(0.806719 -0.0849171 0)
(0.816878 -0.0812511 0)
(0.836142 -0.0783793 0)
(0.843654 -0.0752482 0)
(0.863025 -0.0732241 0)
(0.867975 -0.0708887 0)
(0.88798 -0.069996 0)
(0.89041 -0.0687029 0)
(0.911602 -0.0692266 0)
(-0.00367177 0.00683402 0)
(-0.0134824 0.0172873 0)
(-0.0245266 0.0220165 0)
(-0.0336386 0.0246797 0)
(-0.0418966 0.02627 0)
(-0.049497 0.0271114 0)
(-0.0564008 0.0273824 0)
(-0.0624842 0.0272689 0)
(-0.0676568 0.0269071 0)
(-0.0719229 0.0263693 0)
(-0.0753406 0.0257017 0)
(-0.077972 0.0249381 0)
(-0.0798795 0.0241066 0)
(-0.081123 0.0232299 0)
(-0.0817581 0.0223258 0)
(-0.0818356 0.0214082 0)
(-0.0814019 0.0204886 0)
(-0.0804982 0.0195749 0)
(-0.0791574 0.0186703 0)
(-0.0774101 0.0177801 0)
(-0.0752804 0.0169084 0)
(-0.0727884 0.0160575 0)
(-0.0699484 0.0152278 0)
(-0.0667708 0.0144197 0)
(-0.0632613 0.0136312 0)
(-0.0594189 0.0128588 0)
(-0.055234 0.0120984 0)
(-0.050704 0.0113524 0)
(-0.0458119 0.0106156 0)
(-0.0405391 0.00988042 0)
(-0.0348639 0.00913889 0)
(-0.0287603 0.00838184 0)
(-0.0221993 0.00759834 0)
(-0.0151455 0.00677444 0)
(-0.0075506 0.0058914 0)
(0.000633535 0.0049236 0)
(0.00940566 0.00385048 0)
(0.0188342 0.00266694 0)
(0.0289719 0.0013559 0)
(0.0398546 -0.000106496 0)
(0.0515586 -0.00175119 0)
(0.0640905 -0.00359853 0)
(0.0775798 -0.00568156 0)
(0.0919419 -0.00803836 0)
(0.107394 -0.0107208 0)
(0.123836 -0.0137529 0)
(0.141508 -0.0171748 0)
(0.160127 -0.0210462 0)
(0.180124 -0.0254117 0)
(0.20093 -0.0302356 0)
(0.223233 -0.0356178 0)
(0.246135 -0.0414954 0)
(0.270607 -0.0479528 0)
(0.295352 -0.0548262 0)
(0.321685 -0.0621949 0)
(0.347909 -0.0697973 0)
(0.375693 -0.0777198 0)
(0.402952 -0.0856063 0)
(0.431685 -0.0935722 0)
(0.459469 -0.101199 0)
(0.488585 -0.108641 0)
(0.516335 -0.115439 0)
(0.545213 -0.1218 0)
(0.572344 -0.127253 0)
(0.600346 -0.132069 0)
(0.626299 -0.135796 0)
(0.652829 -0.138774 0)
(0.677142 -0.140588 0)
(0.701703 -0.141631 0)
(0.724059 -0.141544 0)
(0.746307 -0.140749 0)
(0.766569 -0.138952 0)
(0.78631 -0.136578 0)
(0.804502 -0.1334 0)
(0.821676 -0.129814 0)
(0.837958 -0.125671 0)
(0.852606 -0.121301 0)
(0.867241 -0.11664 0)
(0.879473 -0.111919 0)
(0.892795 -0.107178 0)
(0.902756 -0.102509 0)
(0.915143 -0.0980816 0)
(0.922982 -0.0938194 0)
(0.934834 -0.0900528 0)
(0.940677 -0.0864997 0)
(0.952404 -0.0836939 0)
(0.956325 -0.0811074 0)
(0.968337 -0.079529 0)
(0.970327 -0.0781343 0)
(0.983025 -0.0780305 0)
(-0.0017994 0.0288029 0)
(-0.00957428 0.0405573 0)
(-0.0240496 0.0404963 0)
(-0.0354333 0.038065 0)
(-0.0444502 0.0362 0)
(-0.0508581 0.034696 0)
(-0.0549605 0.0332054 0)
(-0.0571585 0.0316537 0)
(-0.0578147 0.0300507 0)
(-0.0572096 0.0284221 0)
(-0.0555327 0.0267888 0)
(-0.0529349 0.0251659 0)
(-0.0495438 0.0235711 0)
(-0.0454677 0.0220159 0)
(-0.040798 0.0205066 0)
(-0.0356126 0.0190471 0)
(-0.0299774 0.0176394 0)
(-0.0239532 0.016282 0)
(-0.0175707 0.0149626 0)
(-0.0108734 0.0136852 0)
(-0.00388888 0.0124509 0)
(0.00336307 0.0112561 0)
(0.0108678 0.0100971 0)
(0.0186192 0.0089701 0)
(0.0266139 0.00787091 0)
(0.0348567 0.00679052 0)
(0.0433856 0.00571266 0)
(0.0521837 0.00461884 0)
(0.0612786 0.00350342 0)
(0.0707011 0.00236334 0)
(0.0804786 0.00119029 0)
(0.0906452 -2.96351e-05 0)
(0.101236 -0.00131165 0)
(0.112289 -0.00267291 0)
(0.123842 -0.00413049 0)
(0.135939 -0.00570301 0)
(0.148607 -0.00741764 0)
(0.1619 -0.00929639 0)
(0.1759 -0.0113593 0)
(0.190592 -0.0136278 0)
(0.206094 -0.0161314 0)
(0.222341 -0.0188937 0)
(0.239519 -0.0219492 0)
(0.257473 -0.0253062 0)
(0.276482 -0.0290082 0)
(0.296259 -0.0330788 0)
(0.317213 -0.0375707 0)
(0.33885 -0.0424858 0)
(0.361751 -0.0478854 0)
(0.385163 -0.0537294 0)
(0.409873 -0.0600871 0)
(0.434835 -0.0668669 0)
(0.461072 -0.0741316 0)
(0.487205 -0.0817085 0)
(0.514528 -0.08965 0)
(0.541307 -0.0976991 0)
(0.569145 -0.105912 0)
(0.595941 -0.113959 0)
(0.623639 -0.121918 0)
(0.649775 -0.129402 0)
(0.676654 -0.136535 0)
(0.701462 -0.142891 0)
(0.726872 -0.148661 0)
(0.749757 -0.1534 0)
(0.773145 -0.157383 0)
(0.793647 -0.160168 0)
(0.814612 -0.162119 0)
(0.832464 -0.162811 0)
(0.850803 -0.162698 0)
(0.865957 -0.161375 0)
(0.881667 -0.159372 0)
(0.894269 -0.1563 0)
(0.907501 -0.152741 0)
(0.917832 -0.148321 0)
(0.928829 -0.143644 0)
(0.937247 -0.138346 0)
(0.94629 -0.133027 0)
(0.953181 -0.127331 0)
(0.960547 -0.121829 0)
(0.966289 -0.11618 0)
(0.97222 -0.110906 0)
(0.977163 -0.105693 0)
(0.981846 -0.100996 0)
(0.986303 -0.0965469 0)
(0.989859 -0.0927139 0)
(0.994103 -0.0893021 0)
(0.996575 -0.0865697 0)
(1.00085 -0.0844246 0)
(1.00218 -0.0829848 0)
(1.00668 -0.0822989 0)
(-0.0195846 0.00827777 0)
(-0.0378115 0.0318973 0)
(-0.0410172 0.0392134 0)
(-0.0431272 0.0399947 0)
(-0.0420355 0.0383272 0)
(-0.0386132 0.0355675 0)
(-0.0333174 0.0325021 0)
(-0.0264957 0.0294636 0)
(-0.0183942 0.0265461 0)
(-0.0093146 0.0238229 0)
(0.000576813 0.0212665 0)
(0.011099 0.0188589 0)
(0.0221023 0.0165958 0)
(0.033472 0.0144704 0)
(0.0451208 0.0124724 0)
(0.0569732 0.0105931 0)
(0.0689759 0.00882523 0)
(0.0810442 0.00716869 0)
(0.0932273 0.00561981 0)
(0.105465 0.00415327 0)
(0.117738 0.00274422 0)
(0.130045 0.00137648 0)
(0.142386 4.05062e-05 0)
(0.154773 -0.00127492 0)
(0.167211 -0.00258 0)
(0.179708 -0.00388609 0)
(0.192311 -0.00520221 0)
(0.205028 -0.00654462 0)
(0.217898 -0.00792979 0)
(0.230969 -0.00937375 0)
(0.244273 -0.0108896 0)
(0.25785 -0.012495 0)
(0.271741 -0.0142054 0)
(0.285985 -0.0160415 0)
(0.30063 -0.0180189 0)
(0.315707 -0.0201586 0)
(0.331277 -0.0224705 0)
(0.347348 -0.0249811 0)
(0.364011 -0.0277121 0)
(0.381232 -0.03069 0)
(0.399131 -0.0339349 0)
(0.41762 -0.0374713 0)
(0.436865 -0.0413204 0)
(0.456701 -0.0455031 0)
(0.477353 -0.0500443 0)
(0.49855 -0.0549599 0)
(0.520595 -0.0602755 0)
(0.543068 -0.0659886 0)
(0.566369 -0.072122 0)
(0.589894 -0.0786416 0)
(0.614168 -0.0855608 0)
(0.638366 -0.0928018 0)
(0.663177 -0.100366 0)
(0.687516 -0.108116 0)
(0.71229 -0.116041 0)
(0.736108 -0.123944 0)
(0.760158 -0.131814 0)
(0.782721 -0.139392 0)
(0.805343 -0.146689 0)
(0.825942 -0.153395 0)
(0.846497 -0.159574 0)
(0.864534 -0.16488 0)
(0.882533 -0.169458 0)
(0.897607 -0.172939 0)
(0.912778 -0.175574 0)
(0.924729 -0.176981 0)
(0.93704 -0.177525 0)
(0.945953 -0.176814 0)
(0.955596 -0.175328 0)
(0.961774 -0.17266 0)
(0.969117 -0.169397 0)
(0.973003 -0.165106 0)
(0.978496 -0.160462 0)
(0.98058 -0.154997 0)
(0.984676 -0.149446 0)
(0.985426 -0.143292 0)
(0.988524 -0.137313 0)
(0.988335 -0.130939 0)
(0.990748 -0.124972 0)
(0.98993 -0.118793 0)
(0.991879 -0.113216 0)
(0.990653 -0.107582 0)
(0.992272 -0.102711 0)
(0.990785 -0.0979105 0)
(0.992129 -0.0939996 0)
(0.990467 -0.0902658 0)
(0.991516 -0.0875189 0)
(0.989716 -0.0850388 0)
(0.990373 -0.0836137 0)
(0.988435 -0.0825299 0)
(-0.0189487 0.107848 0)
(-0.0181828 0.0727275 0)
(-0.0113626 0.0580296 0)
(0.00107355 0.0461408 0)
(0.0173368 0.0363361 0)
(0.035732 0.0288111 0)
(0.0553259 0.0229103 0)
(0.0753431 0.0180816 0)
(0.0956719 0.0139415 0)
(0.115683 0.0103088 0)
(0.135563 0.00710907 0)
(0.15517 0.00429349 0)
(0.174418 0.00178986 0)
(0.193282 -0.000464262 0)
(0.21176 -0.00251192 0)
(0.229834 -0.00438381 0)
(0.247526 -0.00610344 0)
(0.26481 -0.00769298 0)
(0.281744 -0.00917132 0)
(0.298313 -0.0105601 0)
(0.314527 -0.0118851 0)
(0.330426 -0.0131715 0)
(0.346037 -0.01444 0)
(0.361406 -0.0157106 0)
(0.376556 -0.017001 0)
(0.391531 -0.0183274 0)
(0.406378 -0.019702 0)
(0.421145 -0.0211354 0)
(0.435869 -0.0226401 0)
(0.450604 -0.0242372 0)
(0.465389 -0.0259426 0)
(0.480276 -0.0277776 0)
(0.495303 -0.0297561 0)
(0.510518 -0.031899 0)
(0.525956 -0.0342183 0)
(0.541655 -0.0367358 0)
(0.55765 -0.0394619 0)
(0.573964 -0.042421 0)
(0.590634 -0.0456239 0)
(0.60766 -0.0490957 0)
(0.625082 -0.052844 0)
(0.642867 -0.0568921 0)
(0.661059 -0.0612441 0)
(0.679581 -0.0659206 0)
(0.698491 -0.0709213 0)
(0.71765 -0.0762625 0)
(0.73713 -0.0819386 0)
(0.75671 -0.0879545 0)
(0.77649 -0.0942912 0)
(0.79614 -0.100931 0)
(0.815816 -0.107834 0)
(0.83505 -0.114952 0)
(0.854094 -0.122225 0)
(0.87231 -0.129563 0)
(0.890104 -0.136889 0)
(0.906633 -0.144072 0)
(0.922542 -0.151031 0)
(0.936747 -0.157593 0)
(0.950226 -0.163696 0)
(0.961597 -0.169138 0)
(0.97228 -0.173907 0)
(0.980519 -0.177781 0)
(0.988286 -0.180831 0)
(0.993365 -0.182816 0)
(0.998374 -0.183922 0)
(1.00053 -0.183883 0)
(1.00318 -0.183015 0)
(1.00285 -0.181015 0)
(1.00369 -0.17833 0)
(1.00146 -0.174597 0)
(1.00108 -0.170401 0)
(0.997493 -0.165302 0)
(0.996462 -0.160011 0)
(0.992004 -0.153984 0)
(0.990748 -0.148047 0)
(0.985786 -0.141538 0)
(0.984606 -0.135384 0)
(0.979371 -0.128803 0)
(0.978437 -0.122814 0)
(0.973044 -0.116516 0)
(0.972429 -0.111017 0)
(0.966905 -0.105301 0)
(0.966611 -0.10056 0)
(0.960921 -0.0956725 0)
(0.960901 -0.0919072 0)
(0.954967 -0.0880485 0)
(0.95513 -0.0854312 0)
(0.948836 -0.0827555 0)
(0.949048 -0.0814111 0)
(0.942249 -0.0800274 0)
(0.069776 0.00704087 0)
(0.0896592 0.00654112 0)
(0.153222 0.00609998 0)
(0.197998 0.00294665 0)
(0.236686 -0.00131511 0)
(0.27182 -0.00539163 0)
(0.304257 -0.00889835 0)
(0.333789 -0.0118527 0)
(0.361263 -0.0143685 0)
(0.386848 -0.0165219 0)
(0.410984 -0.0183968 0)
(0.433832 -0.0200432 0)
(0.455498 -0.0215011 0)
(0.476094 -0.0228015 0)
(0.495721 -0.0239689 0)
(0.514462 -0.0250213 0)
(0.532388 -0.0259787 0)
(0.549559 -0.0268596 0)
(0.566032 -0.0276915 0)
(0.581865 -0.0284943 0)
(0.597102 -0.0292854 0)
(0.611804 -0.0300851 0)
(0.62602 -0.0309127 0)
(0.639811 -0.0317882 0)
(0.653222 -0.0327281 0)
(0.666315 -0.0337495 0)
(0.679134 -0.034867 0)
(0.69174 -0.036096 0)
(0.704167 -0.0374486 0)
(0.716471 -0.0389414 0)
(0.728682 -0.0405864 0)
(0.740854 -0.0424002 0)
(0.753011 -0.0443939 0)
(0.7652 -0.0465848 0)
(0.777432 -0.0489832 0)
(0.789747 -0.0516065 0)
(0.802146 -0.0544623 0)
(0.814656 -0.0575677 0)
(0.827267 -0.0609279 0)
(0.839993 -0.0645594 0)
(0.852807 -0.0684635 0)
(0.865708 -0.0726549 0)
(0.878653 -0.077129 0)
(0.891618 -0.0818974 0)
(0.904543 -0.0869476 0)
(0.917376 -0.0922867 0)
(0.93004 -0.0978916 0)
(0.942451 -0.10376 0)
(0.954525 -0.109852 0)
(0.966134 -0.116149 0)
(0.977203 -0.122587 0)
(0.987554 -0.129128 0)
(0.997151 -0.135683 0)
(1.00575 -0.142191 0)
(1.01341 -0.14854 0)
(1.01981 -0.154649 0)
(1.02515 -0.160395 0)
(1.029 -0.165685 0)
(1.03182 -0.170409 0)
(1.033 -0.174473 0)
(1.03333 -0.177805 0)
(1.03194 -0.180313 0)
(1.03006 -0.181991 0)
(1.02644 -0.182747 0)
(1.02286 -0.182659 0)
(1.01751 -0.181622 0)
(1.01285 -0.17982 0)
(1.00631 -0.177104 0)
(1.0012 -0.173784 0)
(0.993937 -0.169632 0)
(0.988868 -0.1651 0)
(0.981225 -0.159843 0)
(0.976541 -0.154466 0)
(0.968694 -0.148468 0)
(0.964589 -0.142622 0)
(0.956586 -0.136241 0)
(0.953136 -0.130282 0)
(0.944931 -0.12385 0)
(0.94214 -0.118103 0)
(0.933634 -0.111917 0)
(0.931477 -0.106668 0)
(0.922547 -0.100989 0)
(0.920984 -0.0964838 0)
(0.911489 -0.0915325 0)
(0.910476 -0.0879757 0)
(0.900257 -0.083934 0)
(0.899733 -0.0814845 0)
(0.888601 -0.0784874 0)
(0.888466 -0.0772462 0)
(0.876203 -0.075371 0)
(0.773414 -0.00910082 0)
(0.774896 -0.0204733 0)
(0.77566 -0.0266436 0)
(0.777257 -0.0302968 0)
(0.780808 -0.0329048 0)
(0.78609 -0.0350625 0)
(0.792819 -0.0368984 0)
(0.80037 -0.0383754 0)
(0.80851 -0.0395156 0)
(0.817035 -0.040351 0)
(0.825765 -0.04096 0)
(0.834569 -0.0414117 0)
(0.843348 -0.0417494 0)
(0.85203 -0.0419996 0)
(0.86056 -0.0421805 0)
(0.868898 -0.0423074 0)
(0.877013 -0.0423961 0)
(0.884885 -0.0424641 0)
(0.8925 -0.0425306 0)
(0.899859 -0.0426153 0)
(0.906963 -0.0427371 0)
(0.913824 -0.0429154 0)
(0.920458 -0.0431694 0)
(0.926885 -0.043518 0)
(0.933124 -0.0439783 0)
(0.939203 -0.0445673 0)
(0.945143 -0.0453011 0)
(0.950969 -0.0461949 0)
(0.956699 -0.047261 0)
(0.962358 -0.0485113 0)
(0.967958 -0.0499556 0)
(0.973521 -0.0516045 0)
(0.979054 -0.0534665 0)
(0.984573 -0.0555517 0)
(0.990074 -0.0578677 0)
(0.995568 -0.0604233 0)
(1.00104 -0.0632243 0)
(1.0065 -0.0662777 0)
(1.01191 -0.0695869 0)
(1.01728 -0.0731573 0)
(1.02256 -0.0769886 0)
(1.02773 -0.0810832 0)
(1.03274 -0.0854357 0)
(1.03757 -0.0900438 0)
(1.04214 -0.0948942 0)
(1.04642 -0.0999776 0)
(1.05032 -0.105268 0)
(1.05381 -0.110746 0)
(1.05677 -0.116371 0)
(1.05919 -0.12211 0)
(1.06094 -0.127902 0)
(1.06199 -0.133703 0)
(1.06227 -0.139433 0)
(1.06173 -0.145033 0)
(1.06032 -0.150405 0)
(1.05804 -0.155489 0)
(1.0549 -0.160174 0)
(1.05088 -0.164407 0)
(1.0461 -0.168082 0)
(1.04052 -0.171162 0)
(1.03437 -0.173556 0)
(1.02752 -0.175248 0)
(1.02042 -0.176176 0)
(1.01268 -0.176346 0)
(1.00507 -0.175741 0)
(0.996801 -0.174378 0)
(0.989065 -0.172296 0)
(0.980499 -0.1695 0)
(0.972904 -0.166105 0)
(0.964095 -0.16207 0)
(0.956761 -0.157603 0)
(0.947628 -0.152575 0)
(0.940593 -0.14732 0)
(0.930985 -0.141577 0)
(0.924269 -0.135845 0)
(0.914018 -0.12968 0)
(0.907664 -0.123793 0)
(0.896613 -0.117498 0)
(0.890715 -0.111775 0)
(0.87873 -0.105632 0)
(0.873435 -0.100375 0)
(0.860376 -0.0946377 0)
(0.855862 -0.0901155 0)
(0.841556 -0.0849916 0)
(0.838013 -0.0814261 0)
(0.822218 -0.0770748 0)
(0.819822 -0.0746352 0)
(0.802208 -0.0711569 0)
(0.801109 -0.0699376 0)
(0.781261 -0.0673548 0)
(1.05703 0.00842632 0)
(1.0601 8.69693e-05 0)
(1.06079 -0.007022 0)
(1.06001 -0.0126287 0)
(1.05909 -0.0172073 0)
(1.05875 -0.0211649 0)
(1.05911 -0.0246772 0)
(1.06004 -0.0277539 0)
(1.06129 -0.0303909 0)
(1.06274 -0.0326062 0)
(1.06427 -0.0344428 0)
(1.06586 -0.0359542 0)
(1.06747 -0.0371922 0)
(1.06908 -0.0382023 0)
(1.07067 -0.0390234 0)
(1.07221 -0.0396901 0)
(1.07369 -0.0402343 0)
(1.0751 -0.0406869 0)
(1.07642 -0.041078 0)
(1.07764 -0.0414373 0)
(1.07877 -0.0417937 0)
(1.07979 -0.0421746 0)
(1.08073 -0.0426062 0)
(1.08157 -0.0431128 0)
(1.08234 -0.0437173 0)
(1.08303 -0.0444408 0)
(1.08366 -0.0453024 0)
(1.08422 -0.0463191 0)
(1.08474 -0.0475056 0)
(1.0852 -0.0488743 0)
(1.08562 -0.050436 0)
(1.086 -0.0522 0)
(1.08633 -0.0541744 0)
(1.08661 -0.0563655 0)
(1.08683 -0.0587789 0)
(1.087 -0.0614187 0)
(1.08709 -0.0642888 0)
(1.08709 -0.0673912 0)
(1.087 -0.0707276 0)
(1.08678 -0.0742974 0)
(1.08642 -0.0780992 0)
(1.08589 -0.0821285 0)
(1.08516 -0.0863793 0)
(1.08421 -0.0908413 0)
(1.083 -0.0955017 0)
(1.0815 -0.100342 0)
(1.07968 -0.10534 0)
(1.07751 -0.110467 0)
(1.07495 -0.11569 0)
(1.07198 -0.120969 0)
(1.06856 -0.126257 0)
(1.0647 -0.131503 0)
(1.06035 -0.136644 0)
(1.05553 -0.141622 0)
(1.05023 -0.146364 0)
(1.04447 -0.150808 0)
(1.03825 -0.15488 0)
(1.03162 -0.158523 0)
(1.02458 -0.161664 0)
(1.01719 -0.164262 0)
(1.00945 -0.166243 0)
(1.00141 -0.16759 0)
(0.993063 -0.168234 0)
(0.984406 -0.168188 0)
(0.975485 -0.1674 0)
(0.966163 -0.165917 0)
(0.956618 -0.163709 0)
(0.946491 -0.160855 0)
(0.936233 -0.157347 0)
(0.925124 -0.153271 0)
(0.914091 -0.148645 0)
(0.901848 -0.143543 0)
(0.890074 -0.138042 0)
(0.876622 -0.132181 0)
(0.864283 -0.126122 0)
(0.849635 -0.119817 0)
(0.837046 -0.113555 0)
(0.821256 -0.107132 0)
(0.808832 -0.101024 0)
(0.791941 -0.0947885 0)
(0.780168 -0.0891761 0)
(0.762128 -0.0833864 0)
(0.751535 -0.0785617 0)
(0.732127 -0.073397 0)
(0.72327 -0.0695904 0)
(0.702031 -0.0651461 0)
(0.695523 -0.0625317 0)
(0.671698 -0.0588231 0)
(0.66827 -0.0575114 0)
(0.640786 -0.054467 0)
(1.08182 -0.00310709 0)
(1.08778 -0.0106466 0)
(1.09208 -0.0179383 0)
(1.09476 -0.0239865 0)
(1.09629 -0.0286477 0)
(1.09728 -0.032247 0)
(1.09813 -0.0351425 0)
(1.099 -0.0375614 0)
(1.09988 -0.0395961 0)
(1.10071 -0.0412743 0)
(1.10147 -0.0426096 0)
(1.10213 -0.0436271 0)
(1.1027 -0.0443657 0)
(1.10318 -0.0448713 0)
(1.10358 -0.0451901 0)
(1.10391 -0.0453647 0)
(1.10417 -0.0454335 0)
(1.10434 -0.045432 0)
(1.10442 -0.045393 0)
(1.10441 -0.0453478 0)
(1.10431 -0.0453262 0)
(1.10411 -0.0453561 0)
(1.10382 -0.0454633 0)
(1.10344 -0.0456718 0)
(1.10297 -0.046003 0)
(1.10241 -0.0464764 0)
(1.10178 -0.0471087 0)
(1.10106 -0.0479149 0)
(1.10027 -0.0489071 0)
(1.09939 -0.0500956 0)
(1.09844 -0.0514885 0)
(1.09741 -0.0530923 0)
(1.0963 -0.0549118 0)
(1.0951 -0.0569507 0)
(1.0938 -0.0592116 0)
(1.09241 -0.061696 0)
(1.09091 -0.0644051 0)