/*--------------------------------*- C++ -*----------------------------------*\
| =========                 |                                                 |
| \\      /  F ield         | OpenFOAM: The Open Source CFD Toolbox           |
|  \\    /   O peration     | Version:  2306                                  |
|   \\  /    A nd           | Website:  www.openfoam.com                      |
|    \\/     M anipulation  |                                                 |
\*---------------------------------------------------------------------------*/
FoamFile
{
    version     2.0;
    format      ascii;
    arch        "LSB;label=32;scalar=64";
    class       volScalarField;
    location    "3.61";
    object      p;
}
// * * * * * * * * * * * * * * * * * * * * * * * * * * * * * * * * * * * * * //

dimensions      [0 2 -2 0 0 0 0];

internalField   nonuniform List<scalar> 
1900
(
0.0577817
0.0335559
0.0131594
-0.0021885
-0.013218
-0.0237887
-0.0342501
-0.0464435
-0.0590353
-0.0731404
0.0285212
0.0203214
0.00900138
-0.0025575
-0.0135913
-0.0237915
-0.0342418
-0.0447762
-0.0562986
-0.067375
0.0194325
0.0149407
0.00742238
-0.00194994
-0.0120391
-0.0220246
-0.0318111
-0.0413713
-0.0508071
-0.0599052
0.0137358
0.0106618
0.00501056
-0.00264002
-0.0114946
-0.0207385
-0.0299341
-0.0388532
-0.0474523
-0.0556155
0.011517
0.00898152
0.00424262
-0.00240568
-0.0103846
-0.0189882
-0.0276628
-0.0360853
-0.0441043
-0.0516299
0.0121566
0.00967626
0.00506643
-0.00139722
-0.00913366
-0.0174343
-0.0257398
-0.0337323
-0.0412871
-0.0483749
0.0156172
0.0126721
0.00739292
0.000312843
-0.00774296
-0.0160237
-0.0240633
-0.0316839
-0.0388769
-0.0456768
0.0223205
0.0180264
0.0111315
0.00266709
-0.00614644
-0.0145621
-0.0223838
-0.0297048
-0.036674
-0.0433529
0.032465
0.0243676
0.0139352
0.00348009
-0.00581864
-0.0139193
-0.0212738
-0.0283044
-0.035174
-0.0418418
0.0613169
0.0386465
0.018944
0.00488789
-0.0047602
-0.012443
-0.0196562
-0.0268542
-0.0339865
-0.0408472
-0.0964113
-0.096445
-0.0964894
-0.0965428
-0.0966025
-0.096668
-0.0967389
-0.0968141
-0.0968923
-0.0969721
-0.0970519
-0.0971301
-0.0972051
-0.0972755
-0.0973396
-0.0973962
-0.0974439
-0.0974815
-0.0975079
-0.0975224
-0.0975241
-0.0975126
-0.0974873
-0.097448
-0.0973945
-0.0973268
-0.0972449
-0.0971492
-0.09704
-0.0969181
-0.0967846
-0.0966409
-0.096489
-0.0963308
-0.0961678
-0.0959997
-0.095823
-0.0956289
-0.0954015
-0.0951165
-0.094741
-0.0942352
-0.0935545
-0.0926515
-0.0914751
-0.0899669
-0.0880572
-0.0856633
-0.0826931
-0.0790491
-0.0746331
-0.069376
-0.0632411
-0.05623
-0.0484128
-0.0398701
-0.0307264
-0.0211458
-0.011318
-0.00144863
0.00825467
0.0175877
0.0263639
0.0344178
0.0416111
0.0478468
0.0530593
0.0572218
0.0603331
0.0624259
0.0635504
0.0637819
0.0631995
0.0618989
0.0599712
0.0575155
0.0546161
0.0513621
0.0478211
0.044066
0.0401432
0.0361087
0.0319864
0.0278178
0.0236047
0.0193793
0.0151193
0.0108579
0.00654139
0.00222888
-0.0964069
-0.0964384
-0.0964652
-0.0965063
-0.0965571
-0.0966162
-0.096682
-0.0967528
-0.0968272
-0.0969036
-0.0969805
-0.0970562
-0.0971292
-0.0971979
-0.0972607
-0.0973161
-0.0973628
-0.0973995
-0.0974252
-0.0974388
-0.0974396
-0.0974269
-0.0974001
-0.097359
-0.0973032
-0.0972326
-0.0971472
-0.097047
-0.0969322
-0.0968033
-0.0966605
-0.0965045
-0.0963361
-0.0961561
-0.095965
-0.0957621
-0.0955446
-0.0953065
-0.0950365
-0.0947179
-0.0943276
-0.0938361
-0.0932075
-0.0923984
-0.0913563
-0.0900171
-0.0882994
-0.0861018
-0.0833086
-0.0798047
-0.075499
-0.0703372
-0.0643137
-0.057421
-0.0496718
-0.0411623
-0.032026
-0.0224331
-0.012577
-0.00266885
0.00708122
0.0164587
0.0252736
0.0333752
0.040596
0.046857
0.0520913
0.0562742
0.0594025
0.0615112
0.0626496
0.0628975
0.0623358
0.0610631
0.0591656
0.0567459
0.0538835
0.0506725
0.0471742
0.0434683
0.0395922
0.0356112
0.0315377
0.0274257
0.0232621
0.0190956
0.0148864
0.0106852
0.00642592
0.00218403
-0.0962894
-0.0963707
-0.0964158
-0.096469
-0.0965248
-0.0965859
-0.0966532
-0.0967259
-0.0968024
-0.0968813
-0.0969609
-0.0970397
-0.0971158
-0.0971875
-0.0972533
-0.0973117
-0.0973611
-0.0974002
-0.0974279
-0.097443
-0.0974448
-0.0974325
-0.0974057
-0.0973641
-0.0973075
-0.0972358
-0.0971492
-0.0970479
-0.0969322
-0.0968024
-0.0966586
-0.0965009
-0.0963293
-0.0961438
-0.0959442
-0.0957292
-0.0954968
-0.0952434
-0.0949639
-0.0946507
-0.0942916
-0.0938675
-0.0933507
-0.0926989
-0.0918504
-0.0907252
-0.0892247
-0.08723
-0.0846173
-0.0812866
-0.0771314
-0.0720656
-0.0660518
-0.0591215
-0.0513313
-0.0427846
-0.0336133
-0.0239814
-0.0140997
-0.0041902
0.00554582
0.0149078
0.0237033
0.0317746
0.0389725
0.0452052
0.0504078
0.0545603
0.0576611
0.0597497
0.0608758
0.0611231
0.0605698
0.0593189
0.0574544
0.0550823
0.052278
0.0491392
0.0457221
0.04211
0.0383352
0.0344664
0.0305112
0.0265264
0.0224957
0.0184682
0.0144042
0.0103509
0.00624823
0.00215164
-0.0963729
-0.096446
-0.0964497
-0.096475
-0.09652
-0.0965815
-0.0966541
-0.096734
-0.0968186
-0.0969058
-0.0969936
-0.0970801
-0.0971632
-0.0972414
-0.0973128
-0.0973759
-0.0974292
-0.0974711
-0.0975007
-0.0975168
-0.0975186
-0.0975057
-0.0974775
-0.0974338
-0.0973745
-0.0972995
-0.0972093
-0.0971039
-0.0969839
-0.0968492
-0.0967
-0.0965358
-0.0963556
-0.0961586
-0.0959452
-0.0957158
-0.0954716
-0.0952135
-0.0949413
-0.0946515
-0.094337
-0.0939852
-0.0935714
-0.0930501
-0.0923469
-0.0913669
-0.090011
-0.0881547
-0.0856564
-0.0823951
-0.0782865
-0.0732588
-0.0672902
-0.0604023
-0.0526552
-0.0441593
-0.035055
-0.0255151
-0.0157455
-0.00596265
0.00362316
0.0128156
0.0214261
0.0293017
0.0363087
0.042358
0.0473886
0.0513862
0.0543549
0.0563398
0.0573931
0.057601
0.0570417
0.0558192
0.0540162
0.051737
0.0490544
0.046063
0.0428167
0.0393947
0.0358284
0.0321817
0.0284632
0.024724
0.0209517
0.0171878
0.0134003
0.00962519
0.00581177
0.00199615
-0.0960463
-0.0962513
-0.0963414
-0.0964448
-0.0965427
-0.0966353
-0.096727
-0.0968213
-0.096918
-0.0970153
-0.0971117
-0.0972052
-0.0972942
-0.0973768
-0.0974514
-0.0975164
-0.0975705
-0.0976121
-0.09764
-0.0976533
-0.0976513
-0.0976336
-0.0976
-0.0975505
-0.0974852
-0.0974041
-0.097308
-0.0971974
-0.0970725
-0.0969336
-0.0967804
-0.0966122
-0.0964273
-0.096224
-0.0960034
-0.0957675
-0.0955191
-0.0952618
-0.094998
-0.0947266
-0.09444
-0.0941273
-0.0937654
-0.0933066
-0.0926605
-0.0917304
-0.0903956
-0.0885462
-0.086052
-0.0827991
-0.0786978
-0.0736925
-0.0677655
-0.0609456
-0.0533025
-0.0449498
-0.0360348
-0.0267336
-0.0172454
-0.00777971
0.00145611
0.010272
0.0184922
0.0259733
0.0325966
0.0382836
0.0429839
0.0466904
0.0494166
0.0512125
0.0521356
0.0522718
0.0517005
0.0505219
0.0488174
0.0466848
0.0441946
0.0414329
0.0384519
0.0353219
0.0320746
0.0287643
0.0254028
0.022031
0.018643
0.0152692
0.0118878
0.0085225
0.00513808
0.00175845
-0.0968798
-0.0969014
-0.0967991
-0.0967529
-0.0967625
-0.0968195
-0.0969065
-0.0970065
-0.0971087
-0.0972096
-0.0973074
-0.0974003
-0.0974868
-0.0975654
-0.0976348
-0.0976937
-0.0977408
-0.0977748
-0.0977946
-0.0977993
-0.0977885
-0.097762
-0.09772
-0.0976627
-0.0975903
-0.0975026
-0.0974007
-0.0972854
-0.0971569
-0.0970152
-0.09686
-0.0966901
-0.0965035
-0.0962965
-0.0960751
-0.0958411
-0.0955959
-0.0953429
-0.0950844
-0.0948193
-0.0945373
-0.0942156
-0.0938248
-0.0933169
-0.0926111
-0.091609
-0.0901975
-0.0882621
-0.0856854
-0.0823643
-0.0782203
-0.0732109
-0.0673295
-0.0606132
-0.0531406
-0.0450309
-0.0364352
-0.0275303
-0.0185085
-0.00956781
-0.000900976
0.0073157
0.0149255
0.0218008
0.0278421
0.0329866
0.0372006
0.0404866
0.04287
0.044405
0.0451551
0.0452033
0.0446293
0.0435249
0.0419691
0.0400483
0.0378295
0.0353862
0.0327684
0.0300336
0.0272134
0.0243501
0.0214584
0.0185675
0.0156776
0.0128079
0.0099466
0.00710678
0.00426817
0.0014441
-0.0955481
-0.0961969
-0.0963991
-0.0966553
-0.0968704
-0.0970331
-0.0971549
-0.0972551
-0.097347
-0.0974342
-0.0975172
-0.0975948
-0.097666
-0.0977295
-0.0977842
-0.0978292
-0.0978634
-0.0978856
-0.0978944
-0.0978889
-0.0978687
-0.0978337
-0.097784
-0.0977198
-0.0976411
-0.0975471
-0.0974409
-0.097323
-0.0971929
-0.0970503
-0.0968947
-0.096725
-0.0965395
-0.0963342
-0.096105
-0.0958578
-0.0955965
-0.0953217
-0.0950317
-0.0947212
-0.0943775
-0.0939777
-0.0934853
-0.0928471
-0.0919856
-0.0908071
-0.0892066
-0.0870789
-0.084324
-0.0808582
-0.0766207
-0.0715842
-0.0657566
-0.0591872
-0.0519635
-0.04421
-0.036078
-0.0277399
-0.0193772
-0.0111719
-0.00329385
0.00410485
0.0108946
0.0169714
0.0222604
0.0267186
0.0303319
0.0331144
0.0351022
0.0363513
0.0369278
0.0369082
0.0363687
0.0353895
0.0340431
0.0324023
0.0305278
0.0284788
0.026301
0.0240385
0.0217215
0.0193801
0.0170307
0.0146919
0.0123685
0.0100705
0.00779417
0.00554401
0.00331189
0.00110341
-0.100267
-0.0988863
-0.0982575
-0.0978237
-0.0975968
-0.097507
-0.0974944
-0.0975177
-0.0975551
-0.0975993
-0.097647
-0.0976953
-0.0977422
-0.0977858
-0.0978246
-0.0978565
-0.0978805
-0.0978929
-0.0978926
-0.0978796
-0.0978538
-0.0978152
-0.0977632
-0.0976974
-0.0976178
-0.0975224
-0.0974086
-0.0972805
-0.0971392
-0.0969829
-0.0968093
-0.096616
-0.0964006
-0.0961601
-0.0958928
-0.0955989
-0.0952785
-0.0949294
-0.0945461
-0.0941187
-0.0936302
-0.0930536
-0.092349
-0.0914621
-0.0903227
-0.0888479
-0.0869478
-0.0845341
-0.0815283
-0.0778705
-0.0735231
-0.0684778
-0.0627589
-0.0564273
-0.0495757
-0.0423276
-0.0348283
-0.0272384
-0.0197206
-0.0124347
-0.00552379
0.000891078
0.00671407
0.0118705
0.0163136
0.0200215
0.0229981
0.0252665
0.0268686
0.0278575
0.028296
0.0282502
0.0277891
0.0269791
0.0258848
0.0245641
0.0230701
0.0214481
0.0197383
0.0179726
0.016179
0.014377
0.012584
0.0108093
0.00906194
0.0073438
0.00565845
0.00400264
0.00237667
0.000775822
-0.0944165
-0.0955102
-0.0963494
-0.0969619
-0.0972783
-0.0973958
-0.0974289
-0.0974404
-0.0974547
-0.0974834
-0.0975213
-0.0975613
-0.097601
-0.0976393
-0.0976745
-0.0977048
-0.0977298
-0.0977487
-0.0977549
-0.0977445
-0.097717
-0.0976732
-0.0976142
-0.0975383
-0.0974432
-0.0973269
-0.0971883
-0.0970277
-0.0968446
-0.0966372
-0.0964025
-0.0961373
-0.095838
-0.0955009
-0.0951223
-0.0946991
-0.0942276
-0.0937028
-0.0931161
-0.0924539
-0.0916962
-0.0908154
-0.0897742
-0.0885241
-0.0870063
-0.0851548
-0.0829005
-0.0801776
-0.0769296
-0.0731155
-0.0687189
-0.0637522
-0.0582564
-0.0523012
-0.0459813
-0.0394133
-0.0327271
-0.0260608
-0.0195479
-0.013315
-0.00747113
-0.00210925
0.00270477
0.00692479
0.0105296
0.0135139
0.0158935
0.0176947
0.0189597
0.0197339
0.0200732
0.0200315
0.0196693
0.0190402
0.018201
0.0171963
0.0160725
0.0148618
0.0135999
0.012307
0.0110095
0.00971682
0.00844793
0.0072032
0.00599649
0.00482121
0.00368877
0.00258735
0.0015274
0.000492055
-0.117126
-0.102187
-0.100258
-0.0987808
-0.097865
-0.0974357
-0.0972602
-0.0971961
-0.0971734
-0.0971735
-0.0972081
-0.0972669
-0.0973303
-0.097389
-0.0974409
-0.0974848
-0.0975184
-0.0975383
-0.0975386
-0.0975153
-0.0974676
-0.0973958
-0.0972993
-0.0971755
-0.0970213
-0.0968338
-0.0966108
-0.0963503
-0.0960503
-0.0957085
-0.0953224
-0.0948887
-0.0944035
-0.0938627
-0.0932622
-0.0925975
-0.0918637
-0.0910542
-0.0901597
-0.0891665
-0.0880549
-0.0867972
-0.0853586
-0.0836996
-0.0817761
-0.0795416
-0.07695
-0.0739606
-0.0705426
-0.0666804
-0.0623778
-0.0576607
-0.0525758
-0.0471898
-0.0415865
-0.0358645
-0.03013
-0.0244925
-0.019055
-0.0139111
-0.00913886
-0.00480355
-0.000947569
0.00240451
0.00524743
0.00758447
0.00943562
0.0108266
0.0117969
0.0123853
0.0126403
0.0126056
0.012334
0.0118687
0.0112596
0.0105408
0.00975275
0.00891654
0.00806305
0.00720171
0.00635661
0.00552737
0.00473451
0.00396936
0.00325149
0.00256458
0.00192933
0.00132227
0.00076712
0.000230563
-0.0846361
-0.0911115
-0.0936205
-0.0944585
-0.0948993
-0.0952941
-0.0956586
-0.0959636
-0.0962268
-0.0964555
-0.096651
-0.0968158
-0.0969529
-0.0970656
-0.0971561
-0.0972237
-0.0972654
-0.0972768
-0.0972529
-0.0971896
-0.0970844
-0.0969355
-0.0967417
-0.096501
-0.0962113
-0.0958705
-0.0954766
-0.095028
-0.0945227
-0.0939582
-0.0933306
-0.092636
-0.0918712
-0.0910331
-0.0901184
-0.089123
-0.0880422
-0.0868698
-0.0855975
-0.0842134
-0.0827019
-0.0810429
-0.0792126
-0.0771845
-0.0749303
-0.0724221
-0.069634
-0.0665459
-0.0631458
-0.0594334
-0.0554216
-0.0511385
-0.0466259
-0.0419386
-0.0371429
-0.0323165
-0.0275421
-0.0229043
-0.0184825
-0.0143478
-0.0105558
-0.00714677
-0.00414311
-0.00155584
0.00061743
0.00238466
0.00376678
0.00478948
0.00549035
0.00590482
0.00607658
0.00604268
0.00584857
0.00552874
0.00512539
0.00466423
0.00417939
0.00368366
0.00320201
0.00273428
0.00230007
0.00188945
0.00152265
0.00118285
0.000894751
0.000632383
0.000425976
0.000237922
0.000107472
-1.71839e-05
-0.0786341
-0.0864172
-0.0904034
-0.0918297
-0.0922621
-0.0925941
-0.0930844
-0.0936905
-0.0942983
-0.094833
-0.0952729
-0.0956274
-0.0959147
-0.096149
-0.0963369
-0.0964783
-0.0965687
-0.0966019
-0.0965718
-0.0964733
-0.096303
-0.0960588
-0.0957398
-0.0953456
-0.0948759
-0.0943308
-0.0937102
-0.0930139
-0.0922416
-0.0913925
-0.0904654
-0.089459
-0.088372
-0.0872031
-0.0859507
-0.0846124
-0.0831853
-0.0816653
-0.0800468
-0.0783225
-0.0764828
-0.0745161
-0.0724086
-0.0701447
-0.0677077
-0.0650815
-0.0622532
-0.0592142
-0.0559621
-0.0525029
-0.0488525
-0.0450375
-0.0410959
-0.0370766
-0.0330354
-0.0290312
-0.0251252
-0.0213792
-0.0178522
-0.0145952
-0.0116469
-0.00903341
-0.00676819
-0.00485283
-0.00327467
-0.00201577
-0.00105229
-0.000357899
0.000101909
0.00036241
0.000465425
0.00044675
0.000343918
0.000182159
-9.46731e-06
-0.000214182
-0.000407334
-0.000581868
-0.000720972
-0.000830756
-0.000899446
-0.000943239
-0.000946984
-0.000931363
-0.000871354
-0.00079733
-0.000673154
-0.000545429
-0.000360771
-0.000188592
-0.0683885
-0.0755927
-0.0809366
-0.0844151
-0.0865434
-0.0879833
-0.0891834
-0.0903218
-0.0914104
-0.0924036
-0.0932641
-0.0939824
-0.0945692
-0.0950411
-0.0954113
-0.0956858
-0.0958647
-0.0959448
-0.0959219
-0.0957925
-0.0955545
-0.0952075
-0.0947525
-0.0941915
-0.0935271
-0.0927621
-0.0918996
-0.0909421
-0.0898924
-0.0887525
-0.0875243
-0.0862089
-0.0848072
-0.0833197
-0.0817463
-0.0800866
-0.0783396
-0.0765039
-0.0745769
-0.0725557
-0.0704362
-0.0682137
-0.0658828
-0.0634376
-0.0608726
-0.0581824
-0.0553628
-0.0524121
-0.0493327
-0.0461324
-0.042826
-0.0394373
-0.0360005
-0.0325597
-0.0291652
-0.025869
-0.0227202
-0.0197609
-0.0170241
-0.0145349
-0.0123142
-0.0103823
-0.00875328
-0.00742363
-0.00636519
-0.00553906
-0.00491074
-0.00445541
-0.00414926
-0.00396294
-0.00385669
-0.00379343
-0.00374424
-0.00369702
-0.00364326
-0.00358013
-0.00349766
-0.00339322
-0.00325793
-0.00309668
-0.00290353
-0.00268936
-0.00244507
-0.00218771
-0.00190083
-0.00160956
-0.00128315
-0.00096254
-0.000592965
-0.000249712
-0.0631244
-0.0697424
-0.0752094
-0.0794186
-0.0824932
-0.0847446
-0.0865146
-0.0880423
-0.0894355
-0.0907118
-0.0918512
-0.0928334
-0.093652
-0.0943127
-0.0948252
-0.0951973
-0.0954323
-0.0955298
-0.0954875
-0.0953034
-0.0949768
-0.0945089
-0.0939024
-0.0931618
-0.0922921
-0.0912991
-0.0901887
-0.0889666
-0.0876385
-0.0862096
-0.0846842
-0.0830659
-0.0813574
-0.0795609
-0.0776781
-0.0757104
-0.0736591
-0.0715254
-0.0693104
-0.0670153
-0.0646416
-0.0621907
-0.0596647
-0.0570662
-0.0543984
-0.0516648
-0.0488691
-0.0460156
-0.0431102
-0.0401607
-0.0371785
-0.0341812
-0.0311964
-0.0282636
-0.0254337
-0.0227619
-0.0202941
-0.0180556
-0.0160454
-0.0142467
-0.0126504
-0.0112737
-0.0101449
-0.00926716
-0.00859982
-0.00807242
-0.00762815
-0.0072502
-0.00694292
-0.00670241
-0.00650261
-0.00630859
-0.00609321
-0.00584622
-0.00556977
-0.00527549
-0.00497208
-0.00466576
-0.00435431
-0.00403763
-0.00371016
-0.00337422
-0.00302437
-0.00266719
-0.00229423
-0.00191704
-0.00151831
-0.00111984
-0.000684516
-0.000264409
-0.0585786
-0.064844
-0.0702986
-0.0748454
-0.0784899
-0.0813654
-0.0836825
-0.085642
-0.087377
-0.088946
-0.0903569
-0.0915961
-0.0926502
-0.0935138
-0.0941887
-0.0946795
-0.0949895
-0.0951199
-0.0950706
-0.0948416
-0.0944343
-0.0938523
-0.0931008
-0.0921866
-0.0911175
-0.0899021
-0.0885492
-0.0870681
-0.0854678
-0.0837564
-0.0819413
-0.0800284
-0.0780226
-0.0759277
-0.0737475
-0.0714852
-0.0691447
-0.06673
-0.0642462
-0.0616993
-0.0590958
-0.0564433
-0.0537502
-0.0510264
-0.0482828
-0.0455314
-0.0427845
-0.0400535
-0.0373476
-0.034674
-0.0320389
-0.02945
-0.0269205
-0.0244754
-0.0221624
-0.0200442
-0.018176
-0.0165755
-0.0152005
-0.0139769
-0.0128589
-0.0118597
-0.011028
-0.0103899
-0.00991401
-0.00951386
-0.00910729
-0.00867261
-0.00823867
-0.00783689
-0.00747356
-0.00713504
-0.00680902
-0.00648199
-0.00614245
-0.00578841
-0.00542371
-0.00505381
-0.00468056
-0.00430546
-0.0039273
-0.00354707
-0.0031622
-0.0027743
-0.00237933
-0.00198047
-0.00156941
-0.00115242
-0.000708656
-0.000263377
-0.0549762
-0.0610357
-0.0664672
-0.0711925
-0.0751878
-0.0785067
-0.081271
-0.0836268
-0.0856953
-0.0875486
-0.089213
-0.090686
-0.0919546
-0.0930071
-0.0938374
-0.094444
-0.0948272
-0.0949876
-0.0949257
-0.0946433
-0.0941446
-0.0934367
-0.0925291
-0.091432
-0.0901562
-0.0887132
-0.0871151
-0.085374
-0.0835021
-0.0815107
-0.0794099
-0.0772086
-0.074914
-0.0725324
-0.0700694
-0.0675308
-0.0649229
-0.0622532
-0.0595311
-0.0567677
-0.0539759
-0.0511695
-0.0483631
-0.0455711
-0.0428099
-0.0400994
-0.0374611
-0.0349121
-0.0324619
-0.0301132
-0.027865
-0.0257134
-0.0236534
-0.0216835
-0.0198324
-0.0181576
-0.0167271
-0.0155727
-0.014627
-0.0137839
-0.0129752
-0.0122008
-0.0114872
-0.0108566
-0.0103355
-0.0098942
-0.00947806
-0.00906658
-0.00867452
-0.00828486
-0.00788462
-0.00747324
-0.00705284
-0.00662992
-0.00621404
-0.0058117
-0.00542157
-0.00504181
-0.0046689
-0.00429859
-0.00392669
-0.00355115
-0.00317025
-0.0027837
-0.00238988
-0.00198942
-0.00157861
-0.0011573
-0.000717165
-0.000267375
-0.0520811
-0.058034
-0.0634537
-0.0682744
-0.0724755
-0.0760897
-0.0791937
-0.0818865
-0.084262
-0.086387
-0.0882944
-0.0899898
-0.0914629
-0.0926985
-0.0936835
-0.0944094
-0.0948714
-0.0950669
-0.0949957
-0.0946599
-0.0940664
-0.0932271
-0.0921575
-0.0908731
-0.0893891
-0.0877205
-0.0858827
-0.0838912
-0.0817615
-0.0795082
-0.0771447
-0.0746827
-0.0721323
-0.0695023
-0.0668008
-0.0640361
-0.0612173
-0.0583553
-0.0554638
-0.0525592
-0.0496614
-0.046792
-0.0439724
-0.0412189
-0.0385443
-0.0359724
-0.0335289
-0.0312289
-0.0290728
-0.0270501
-0.0251524
-0.0233684
-0.0216915
-0.020128
-0.0186747
-0.0173523
-0.0161976
-0.0152083
-0.014361
-0.0136178
-0.0129513
-0.0123644
-0.0118658
-0.0114069
-0.0109013
-0.0103235
-0.00971328
-0.00913856
-0.00862138
-0.00816496
-0.00775765
-0.00737281
-0.00699184
-0.00660791
-0.00621908
-0.00582978
-0.00544399
-0.00506298
-0.00468516
-0.0043085
-0.00393094
-0.00355086
-0.00316632
-0.00277662
-0.00238087
-0.00197845
-0.00156701
-0.00114573
-0.000713345
-0.0002628
-0.0497015
-0.0556281
-0.0610489
-0.0659193
-0.0702399
-0.0740492
-0.0774074
-0.0803821
-0.0830376
-0.0854243
-0.0875718
-0.089488
-0.0911646
-0.0925841
-0.0937279
-0.0945804
-0.0951304
-0.0953712
-0.0953008
-0.0949217
-0.0942422
-0.0932782
-0.0920522
-0.0905869
-0.0889047
-0.0870274
-0.0849762
-0.0827714
-0.080432
-0.0779758
-0.0754182
-0.0727728
-0.0700514
-0.0672643
-0.0644213
-0.061532
-0.0586075
-0.0556603
-0.0527064
-0.0497649
-0.0468598
-0.0440182
-0.0412687
-0.0386337
-0.0361279
-0.0337712
-0.0315761
-0.0295388
-0.027642
-0.0258562
-0.0241521
-0.0225271
-0.0210106
-0.0196499
-0.0184912
-0.0175496
-0.0167779
-0.0160199
-0.0151743
-0.0142363
-0.0132854
-0.0124464
-0.0117494
-0.0111761
-0.0106688
-0.0101731
-0.0096736
-0.00918011
-0.00870748
-0.00826793
-0.00785056
-0.00744318
-0.00703904
-0.00663684
-0.00623835
-0.00584553
-0.00545754
-0.00507388
-0.00469323
-0.00431369
-0.00393329
-0.00355042
-0.00316365
-0.00277195
-0.00237431
-0.0019695
-0.00155598
-0.00113479
-0.000707754
-0.000256787
-0.048179
-0.0540702
-0.0594557
-0.0643271
-0.0687085
-0.0726411
-0.0761754
-0.0793612
-0.082241
-0.0848495
-0.0872071
-0.0893179
-0.0911725
-0.0927527
-0.0940363
-0.0950021
-0.095633
-0.0959175
-0.0958517
-0.0954396
-0.0946927
-0.0936281
-0.0922683
-0.0906426
-0.088784
-0.0867253
-0.0844972
-0.0821271
-0.0796391
-0.0770533
-0.0743866
-0.0716526
-0.0688625
-0.0660261
-0.0631519
-0.0602487
-0.0573262
-0.054396
-0.0514726
-0.0485746
-0.0457254
-0.0429538
-0.0402946
-0.0377847
-0.0354624
-0.033348
-0.0314381
-0.0297021
-0.0280878
-0.0265366
-0.0249788
-0.0233879
-0.0217823
-0.0202274
-0.0188082
-0.0175979
-0.0165756
-0.0156846
-0.0148524
-0.0140472
-0.0132746
-0.0125612
-0.0119294
-0.0113645
-0.0108247
-0.0102878
-0.00975418
-0.00923848
-0.00875235
-0.00829665
-0.00786641
-0.0074529
-0.00704864
-0.00664942
-0.00625377
-0.00586186
-0.00547384
-0.00508922
-0.00470681
-0.0043251
-0.00394247
-0.00355741
-0.00316856
-0.0027748
-0.00237503
-0.00196798
-0.00155274
-0.00113107
-0.000704707
-0.000254023
-0.0472699
-0.0531786
-0.0585643
-0.0634535
-0.0678861
-0.0719055
-0.0755562
-0.0788825
-0.0819224
-0.0846991
-0.0872209
-0.0894841
-0.091475
-0.0931738
-0.0945575
-0.0956043
-0.0962962
-0.0966218
-0.0965777
-0.0961697
-0.0954124
-0.0943284
-0.0929458
-0.0912968
-0.0894152
-0.0873343
-0.0850861
-0.0826993
-0.0801989
-0.077606
-0.0749379
-0.0722086
-0.0694294
-0.0666099
-0.0637582
-0.0608824
-0.057991
-0.055094
-0.0522038
-0.0493359
-0.0465102
-0.0437505
-0.0410848
-0.038543
-0.0361513
-0.0339267
-0.0318716
-0.0299735
-0.0282122
-0.0265314
-0.0248847
-0.0232698
-0.0217056
-0.0202441
-0.018941
-0.0178154
-0.0168459
-0.0159543
-0.0150827
-0.0142198
-0.0133913
-0.0126379
-0.0119723
-0.0113765
-0.0108197
-0.0102813
-0.0097581
-0.0092561
-0.00877991
-0.00832951
-0.00789909
-0.00748209
-0.00707382
-0.00667186
-0.00627531
-0.00588373
-0.00549647
-0.00511256
-0.00473065
-0.0043492
-0.00396662
-0.00358146
-0.00319236
-0.00279813
-0.0023976
-0.00198963
-0.00157331
-0.00114886
-0.000716013
-0.000259263
)
;

boundaryField
{
    fixedWalls
    {
        type            zeroGradient;
    }
    inflowWall
    {
        type            zeroGradient;
    }
    outflowWall
    {
        type            fixedValue;
        value           uniform 0;
    }
    frontAndBack
    {
        type            empty;
    }
}


// ************************************************************************* //
