/*--------------------------------*- C++ -*----------------------------------*\
| =========                 |                                                 |
| \\      /  F ield         | OpenFOAM: The Open Source CFD Toolbox           |
|  \\    /   O peration     | Version:  2306                                  |
|   \\  /    A nd           | Website:  www.openfoam.com                      |
|    \\/     M anipulation  |                                                 |
\*---------------------------------------------------------------------------*/
FoamFile
{
    version     2.0;
    format      ascii;
    arch        "LSB;label=32;scalar=64";
    class       surfaceScalarField;
    location    "4.04";
    object      phi;
}
// * * * * * * * * * * * * * * * * * * * * * * * * * * * * * * * * * * * * * //

dimensions      [0 3 -1 0 0 0 0];

oriented        oriented;

internalField   nonuniform List<scalar> 
3680
(
4.9347e-05
6.53008e-07
4.79742e-05
1.37283e-06
4.66979e-05
1.27621e-06
4.5261e-05
1.43698e-06
4.41232e-05
1.13773e-06
4.27197e-05
1.40354e-06
4.17362e-05
9.83454e-07
4.04354e-05
1.30081e-06
3.98049e-05
6.30496e-07
9.8506e-07
3.88199e-05
5.03392e-05
3.13804e-07
5.08679e-05
8.4415e-07
5.11322e-05
1.01191e-06
5.14654e-05
1.10376e-06
5.1593e-05
1.01012e-06
5.19764e-05
1.02017e-06
5.20618e-05
8.98003e-07
5.25139e-05
8.48769e-07
5.25083e-05
6.36024e-07
4.29215e-07
5.30642e-05
5.01633e-05
1.50513e-07
5.05554e-05
4.52036e-07
5.0976e-05
5.91339e-07
5.14196e-05
6.60097e-07
5.18168e-05
6.12938e-07
5.22679e-05
5.69086e-07
5.26951e-05
4.70851e-07
5.31641e-05
3.79775e-07
5.3581e-05
2.1904e-07
8.04843e-09
5.40022e-05
5.00932e-05
5.72917e-08
5.03764e-05
1.68875e-07
5.0734e-05
2.33673e-07
5.11461e-05
2.48025e-07
5.15497e-05
2.09358e-07
5.19722e-05
1.46561e-07
5.23833e-05
5.97853e-08
5.28122e-05
-4.91234e-08
5.32226e-05
-1.9138e-07
-3.61862e-07
5.35925e-05
5.00738e-05
-1.64994e-08
5.02912e-05
-4.85818e-08
5.0611e-05
-8.61173e-08
5.09886e-05
-1.29568e-07
5.13801e-05
-1.8213e-07
5.17741e-05
-2.47432e-07
5.21649e-05
-3.31049e-07
5.2551e-05
-4.35227e-07
5.29204e-05
-5.60778e-07
-7.0739e-07
5.3266e-05
5.00732e-05
-8.96586e-08
5.02829e-05
-2.58306e-07
5.05977e-05
-4.00906e-07
5.09651e-05
-4.96982e-07
5.13441e-05
-5.61144e-07
5.17212e-05
-6.2449e-07
5.20908e-05
-7.00672e-07
5.24515e-05
-7.95967e-07
5.28008e-05
-9.10007e-07
-1.03854e-06
5.31319e-05
5.00942e-05
-1.83844e-07
5.03555e-05
-5.19633e-07
5.06981e-05
-7.43487e-07
5.10679e-05
-8.66814e-07
5.14401e-05
-9.33366e-07
5.18037e-05
-9.88067e-07
5.21602e-05
-1.0571e-06
5.25111e-05
-1.14692e-06
5.28514e-05
-1.25035e-06
-1.35927e-06
5.31722e-05
5.01665e-05
-3.50303e-07
5.05179e-05
-8.71122e-07
5.09206e-05
-1.14615e-06
5.12992e-05
-1.24545e-06
5.16479e-05
-1.28198e-06
5.1985e-05
-1.32517e-06
5.23184e-05
-1.39059e-06
5.26393e-05
-1.46782e-06
5.29338e-05
-1.54483e-06
-1.61619e-06
5.31907e-05
5.03676e-05
-7.17896e-07
5.08003e-05
-1.30385e-06
5.10989e-05
-1.44474e-06
5.12762e-05
-1.42277e-06
5.14045e-05
-1.41029e-06
5.15029e-05
-1.42353e-06
5.15539e-05
-1.44155e-06
5.15407e-05
-1.45469e-06
5.14552e-05
-1.45929e-06
-1.45873e-06
5.12977e-05
4.92821e-05
4.79783e-05
4.65335e-05
4.51107e-05
4.37004e-05
4.22769e-05
4.08354e-05
3.93807e-05
3.79214e-05
3.64627e-05
1.43624e-08
-1.43624e-08
1.08904e-08
3.472e-09
-7.59424e-09
1.84847e-08
-3.56911e-08
2.80968e-08
-7.066e-08
3.49689e-08
-1.1122e-07
4.05598e-08
-1.56978e-07
4.5758e-08
-2.07675e-07
5.06976e-08
-2.63016e-07
5.53407e-08
-3.22667e-07
5.96505e-08
-3.8627e-07
6.36035e-08
-4.53461e-07
6.71906e-08
-5.23876e-07
7.04153e-08
-5.97165e-07
7.32888e-08
-6.72993e-07
7.58285e-08
-7.5105e-07
7.80567e-08
-8.31051e-07
8.00007e-08
-9.12742e-07
8.16917e-08
-9.95909e-07
8.31662e-08
-1.08038e-06
8.4473e-08
-1.16605e-06
8.56725e-08
-1.25289e-06
8.68318e-08
-1.34091e-06
8.80208e-08
-1.43022e-06
8.93112e-08
-1.52099e-06
9.07763e-08
-1.61348e-06
9.24894e-08
-1.708e-06
9.45177e-08
-1.80492e-06
9.69148e-08
-1.90464e-06
9.97216e-08
-2.00761e-06
1.0297e-07
-2.11431e-06
1.06698e-07
-2.2253e-06
1.10991e-07
-2.34134e-06
1.16043e-07
-2.46358e-06
1.22241e-07
-2.59378e-06
1.30196e-07
-2.73457e-06
1.40794e-07
-2.88977e-06
1.55202e-07
-3.0646e-06
1.74826e-07
-3.26576e-06
2.01162e-07
-3.50128e-06
2.35523e-07
-3.7799e-06
2.78616e-07
-4.10991e-06
3.3001e-07
-4.49756e-06
3.87653e-07
-4.94513e-06
4.47566e-07
-5.44922e-06
5.04096e-07
-5.99998e-06
5.50751e-07
-6.58137e-06
5.81396e-07
-7.17237e-06
5.91002e-07
-7.74853e-06
5.76157e-07
-8.28491e-06
5.36381e-07
-8.75843e-06
4.73522e-07
-9.14661e-06
3.88174e-07
-9.42987e-06
2.83266e-07
-9.59683e-06
1.66955e-07
-9.63389e-06
3.70631e-08
-9.54122e-06
-9.26698e-08
-9.31846e-06
-2.22757e-07
-8.96697e-06
-3.51492e-07
-8.49143e-06
-4.75542e-07
-7.90044e-06
-5.90992e-07
-7.20576e-06
-6.94678e-07
-6.41905e-06
-7.86708e-07
-5.55363e-06
-8.65425e-07
-4.62407e-06
-9.29561e-07
-3.64518e-06
-9.78884e-07
-2.63219e-06
-1.01299e-06
-1.60085e-06
-1.03133e-06
-5.64064e-07
-1.03679e-06
4.65265e-07
-1.02933e-06
1.47649e-06
-1.01123e-06
2.45826e-06
-9.81773e-07
3.40317e-06
-9.44907e-07
4.30224e-06
-8.99072e-07
5.15239e-06
-8.50144e-07
5.94684e-06
-7.94456e-07
6.68571e-06
-7.38871e-07
7.36457e-06
-6.78856e-07
7.9873e-06
-6.22729e-07
8.55106e-06
-5.63759e-07
9.06295e-06
-5.11894e-07
9.52097e-06
-4.58014e-07
9.93518e-06
-4.14215e-07
1.03036e-05
-3.68403e-07
1.06392e-05
-3.35628e-07
1.09391e-05
-2.99884e-07
1.12195e-05
-2.80435e-07
1.14742e-05
-2.54665e-07
1.17248e-05
-2.50623e-07
1.19633e-05
-2.38445e-07
-2.59414e-07
-1.08407e-08
-3.52171e-09
-6.43461e-08
5.69774e-08
-1.47576e-07
1.01714e-07
-2.52499e-07
1.33021e-07
-3.74274e-07
1.56744e-07
-5.10594e-07
1.7688e-07
-6.59853e-07
1.95017e-07
-8.20614e-07
2.11458e-07
-9.91509e-07
2.26236e-07
-1.17124e-06
2.39377e-07
-1.35855e-06
2.50921e-07
-1.5523e-06
2.60938e-07
-1.7514e-06
2.6952e-07
-1.9549e-06
2.76784e-07
-2.16194e-06
2.82869e-07
-2.37181e-06
2.87925e-07
-2.58392e-06
2.92114e-07
-2.79784e-06
2.95611e-07
-3.01328e-06
2.98604e-07
-3.23011e-06
3.01304e-07
-3.44839e-06
3.03949e-07
-3.66834e-06
3.06786e-07
-3.89039e-06
3.10065e-07
-4.11511e-06
3.14031e-07
-4.34326e-06
3.18933e-07
-4.57579e-06
3.2502e-07
-4.81381e-06
3.3253e-07
-5.05856e-06
3.4167e-07
-5.31146e-06
3.52624e-07
-5.57405e-06
3.65559e-07
-5.84799e-06
3.80639e-07
-6.13507e-06
3.98066e-07
-6.43718e-06
4.18158e-07
-6.75638e-06
4.41436e-07
-7.09478e-06
4.68597e-07
-7.45443e-06
5.00445e-07
-7.83704e-06
5.37808e-07
-8.2436e-06
5.81395e-07
-8.67397e-06
6.31524e-07
-9.12625e-06
6.87807e-07
-9.5964e-06
7.48766e-07
-1.00777e-05
8.11346e-07
-1.05607e-05
8.7058e-07
-1.10326e-05
9.19551e-07
-1.14787e-05
9.50135e-07
-1.1882e-05
9.54072e-07
-1.22255e-05
9.24914e-07
-1.24931e-05
8.58586e-07
-1.26687e-05
7.51729e-07
-1.27381e-05
6.05803e-07
-1.26892e-05
4.24662e-07
-1.25119e-05
2.10824e-07
-1.21948e-05
-3.38684e-08
-1.17509e-05
-2.76874e-07
-1.11769e-05
-5.3696e-07
-1.04687e-05
-8.0085e-07
-9.62949e-06
-1.062e-06
-8.6681e-06
-1.31288e-06
-7.59286e-06
-1.55078e-06
-6.41411e-06
-1.76974e-06
-5.14597e-06
-1.96282e-06
-3.80069e-06
-2.13199e-06
-2.39249e-06
-2.27362e-06
-9.37288e-07
-2.38477e-06
5.50747e-07
-2.46692e-06
2.05555e-06
-2.5178e-06
3.56694e-06
-2.54273e-06
5.07043e-06
-2.54027e-06
6.55451e-06
-2.51342e-06
8.00774e-06
-2.46446e-06
9.4212e-06
-2.39523e-06
1.07866e-05
-2.3103e-06
1.20977e-05
-2.2102e-06
1.3349e-05
-2.10143e-06
1.45372e-05
-1.98263e-06
1.56601e-05
-1.86178e-06
1.67168e-05
-1.73556e-06
1.77075e-05
-1.61346e-06
1.86334e-05
-1.48968e-06
1.94968e-05
-1.37529e-06
2.03005e-05
-1.26168e-06
2.10484e-05
-1.16207e-06
2.17445e-05
-1.06454e-06
2.23941e-05
-9.85198e-07
2.30022e-05
-9.08024e-07
2.3575e-05
-8.53245e-07
2.41199e-05
-7.99501e-07
2.46429e-05
-7.73673e-07
2.51505e-05
-7.46048e-07
-7.47593e-07
-4.99325e-08
4.64108e-08
-1.86185e-07
1.9323e-07
-3.68238e-07
2.83768e-07
-5.77248e-07
3.4203e-07
-8.04412e-07
3.83907e-07
-1.04731e-06
4.1978e-07
-1.30444e-06
4.52142e-07
-1.57331e-06
4.80327e-07
-1.85137e-06
5.04302e-07
-2.13627e-06
5.24278e-07
-2.42589e-06
5.40533e-07
-2.71834e-06
5.53397e-07
-3.01207e-06
5.63249e-07
-3.30578e-06
5.70489e-07
-3.59843e-06
5.7552e-07
-3.88924e-06
5.78739e-07
-4.17766e-06
5.80529e-07
-4.46333e-06
5.81283e-07
-4.74606e-06
5.81339e-07
-5.02585e-06
5.81088e-07
-5.30284e-06
5.80945e-07
-5.57735e-06
5.81296e-07
-5.84978e-06
5.82492e-07
-6.1206e-06
5.84846e-07
-6.3903e-06
5.88639e-07
-6.65941e-06
5.94128e-07
-6.9284e-06
6.01524e-07
-7.19768e-06
6.10949e-07
-7.46751e-06
6.22446e-07
-7.73794e-06
6.35993e-07
-8.00881e-06
6.51511e-07
-8.27963e-06
6.68882e-07
-8.54947e-06
6.87997e-07
-8.81712e-06
7.09086e-07
-9.08088e-06
7.32362e-07
-9.33843e-06
7.57991e-07
-9.58661e-06
7.85995e-07
-9.82136e-06
8.16136e-07
-1.00374e-05
8.47606e-07
-1.02284e-05
8.7876e-07
-1.03869e-05
9.07239e-07
-1.0504e-05
9.28512e-07
-1.05703e-05
9.36871e-07
-1.0576e-05
9.25195e-07
-1.05114e-05
8.85544e-07
-1.03672e-05
8.09937e-07
-1.01352e-05
6.92871e-07
-9.81069e-06
5.34077e-07
-9.38935e-06
3.30396e-07
-8.86434e-06
8.07938e-08
-8.2392e-06
-2.00484e-07
-7.51487e-06
-5.135e-07
-6.69452e-06
-8.54222e-07
-5.76479e-06
-1.20661e-06
-4.73583e-06
-1.56592e-06
-3.61471e-06
-1.92197e-06
-2.40597e-06
-2.27073e-06
-1.11699e-06
-2.60186e-06
2.45363e-07
-2.91313e-06
1.66441e-06
-3.18878e-06
3.13879e-06
-3.4372e-06
4.65286e-06
-3.64606e-06
6.19797e-06
-3.81874e-06
7.76041e-06
-3.9472e-06
9.33131e-06
-4.03783e-06
1.08978e-05
-4.08424e-06
1.24494e-05
-4.09436e-06
1.39744e-05
-4.0653e-06
1.54654e-05
-4.00438e-06
1.69123e-05
-3.91134e-06
1.83103e-05
-3.7933e-06
1.96521e-05
-3.65209e-06
2.09357e-05
-3.49381e-06
2.21561e-05
-3.32177e-06
2.3314e-05
-3.14053e-06
2.44066e-05
-2.95443e-06
2.5437e-05
-2.76597e-06
2.6404e-05
-2.58046e-06
2.73124e-05
-2.39808e-06
2.81623e-05
-2.22518e-06
2.89599e-05
-2.05927e-06
2.97061e-05
-1.9083e-06
3.04082e-05
-1.76666e-06
3.10678e-05
-1.64472e-06
3.16928e-05
-1.53304e-06
3.22853e-05
-1.44574e-06
3.28542e-05
-1.36845e-06
3.34008e-05
-1.32027e-06
3.39342e-05
-1.27945e-06
-1.27671e-06
-1.38154e-07
1.84565e-07
-3.92003e-07
4.47079e-07
-6.85218e-07
5.76982e-07
-9.95749e-07
6.52561e-07
-1.32149e-06
7.09652e-07
-1.65978e-06
7.58063e-07
-2.00563e-06
7.97991e-07
-2.35437e-06
8.29068e-07
-2.70203e-06
8.51964e-07
-3.04562e-06
8.67865e-07
-3.3827e-06
8.77621e-07
-3.71141e-06
8.82099e-07
-4.03038e-06
8.82222e-07
-4.33869e-06
8.78799e-07
-4.63572e-06
8.7255e-07
-4.9211e-06
8.64124e-07
-5.19466e-06
8.54091e-07
-5.45633e-06
8.42951e-07
-5.70617e-06
8.31174e-07
-5.9443e-06
8.19221e-07
-6.17088e-06
8.07522e-07
-6.38604e-06
7.96455e-07
-6.58987e-06
7.86327e-07
-6.78239e-06
7.77359e-07
-6.96345e-06
7.697e-07
-7.13278e-06
7.6346e-07
-7.28996e-06
7.58705e-07
-7.43436e-06
7.55352e-07
-7.5651e-06
7.53185e-07
-7.68101e-06
7.51899e-07
-7.7806e-06
7.51108e-07
-7.86207e-06
7.50353e-07
-7.92324e-06
7.49165e-07
-7.96136e-06
7.472e-07
-7.97329e-06
7.44299e-07
-7.95552e-06
7.40218e-07
-7.90386e-06
7.34331e-07
-7.81348e-06
7.25759e-07
-7.67894e-06
7.1307e-07
-7.49424e-06
6.94053e-07
-7.25243e-06
6.65434e-07
-6.94679e-06
6.22869e-07
-6.57224e-06
5.6232e-07
-6.12399e-06
4.76943e-07
-5.59839e-06
3.5995e-07
-4.99263e-06
2.04178e-07
-4.30159e-06
1.83393e-09
-3.53445e-06
-2.33068e-07
-2.68794e-06
-5.16117e-07
-1.76647e-06
-8.40676e-07
-7.66255e-07
-1.2007e-06
3.09942e-07
-1.5897e-06
1.45573e-06
-2.00001e-06
2.66869e-06
-2.41956e-06
3.94656e-06
-2.84379e-06
5.28486e-06
-3.26028e-06
6.6793e-06
-3.66517e-06
8.12244e-06
-4.04501e-06
9.60788e-06
-4.39857e-06
1.11294e-05
-4.71031e-06
1.26766e-05
-4.98438e-06
1.4239e-05
-5.20848e-06
1.58079e-05
-5.38758e-06
1.73717e-05
-5.511e-06
1.89213e-05
-5.58748e-06
2.0446e-05
-5.60896e-06
2.19379e-05
-5.58622e-06
2.33871e-05
-5.51448e-06
2.47884e-05
-5.40569e-06
2.6134e-05
-5.257e-06
2.74217e-05
-5.08094e-06
2.86458e-05
-4.87622e-06
2.98068e-05
-4.65482e-06
3.09014e-05
-4.41634e-06
3.19322e-05
-4.17136e-06
3.28978e-05
-3.91997e-06
3.38025e-05
-3.67073e-06
3.46463e-05
-3.42419e-06
3.54347e-05
-3.18656e-06
3.61686e-05
-2.95909e-06
3.68546e-05
-2.74526e-06
3.74939e-05
-2.54761e-06
3.80938e-05
-2.36654e-06
3.86557e-05
-2.20662e-06
3.91874e-05
-2.06473e-06
3.96902e-05
-1.94851e-06
4.01723e-05
-1.85057e-06
4.06349e-05
-1.78291e-06
4.1089e-05
-1.73348e-06
-1.72252e-06
-1.95253e-07
3.79818e-07
-5.65851e-07
8.17677e-07
-9.83993e-07
9.95124e-07
-1.41167e-06
1.08024e-06
-1.83275e-06
1.13074e-06
-2.23856e-06
1.16387e-06
-2.62534e-06
1.18477e-06
-2.99196e-06
1.19569e-06
-3.33663e-06
1.19664e-06
-3.65785e-06
1.18908e-06
-3.9549e-06
1.17467e-06
-4.22765e-06
1.15485e-06
-4.47631e-06
1.13088e-06
-4.70137e-06
1.10386e-06
-4.90349e-06
1.07467e-06
-5.0834e-06
1.04404e-06
-5.24186e-06
1.01255e-06
-5.37952e-06
9.80614e-07
-5.49698e-06
9.48631e-07
-5.59474e-06
9.16982e-07
-5.6732e-06
8.85982e-07
-5.73261e-06
8.55868e-07
-5.77306e-06
8.2678e-07
-5.79444e-06
7.98732e-07
-5.79639e-06
7.71654e-07
-5.77834e-06
7.45404e-07
-5.73953e-06
7.199e-07
-5.67903e-06
6.94853e-07
-5.59561e-06
6.69768e-07
-5.48779e-06
6.44073e-07
-5.35379e-06
6.17111e-07
-5.19156e-06
5.88125e-07
-4.99871e-06
5.56306e-07
-4.77229e-06
5.20788e-07
-4.50908e-06
4.8109e-07
-4.20571e-06
4.36845e-07
-3.85819e-06
3.86809e-07
-3.46211e-06
3.29683e-07
-3.01273e-06
2.63691e-07
-2.50503e-06
1.86349e-07
-1.93372e-06
9.41244e-08
-1.29323e-06
-1.76241e-08
-5.84783e-07
-1.46126e-07
1.95723e-07
-3.03563e-07
1.05066e-06
-4.94989e-07
1.97765e-06
-7.22805e-07
2.97028e-06
-9.90804e-07
4.03448e-06
-1.29727e-06
5.16342e-06
-1.64505e-06
6.35253e-06
-2.02979e-06
7.59866e-06
-2.44683e-06
8.89694e-06
-2.88797e-06
1.02446e-05
-3.34768e-06
1.16383e-05
-3.81328e-06
1.30744e-05
-4.27982e-06
1.45473e-05
-4.73321e-06
1.60515e-05
-5.16937e-06
1.75795e-05
-5.57302e-06
1.91233e-05
-5.94237e-06
2.06752e-05
-6.26218e-06
2.22251e-05
-6.53426e-06
2.37629e-05
-6.74635e-06
2.52794e-05
-6.90405e-06
2.67653e-05
-6.99687e-06
2.82122e-05
-7.03442e-06
2.96123e-05
-7.0091e-06
3.09599e-05
-6.93379e-06
3.22487e-05
-6.80326e-06
3.34758e-05
-6.63276e-06
3.46372e-05
-6.41845e-06
3.5733e-05
-6.17673e-06
3.67612e-05
-5.90438e-06
3.77241e-05
-5.61778e-06
3.86213e-05
-5.31356e-06
3.94571e-05
-5.00715e-06
4.02318e-05
-4.69463e-06
4.0951e-05
-4.38995e-06
4.16155e-05
-4.08862e-06
4.22318e-05
-3.80286e-06
4.28005e-05
-3.52782e-06
4.33291e-05
-3.27387e-06
4.38177e-05
-3.03621e-06
4.42745e-05
-2.82327e-06
4.46987e-05
-2.63089e-06
4.50994e-05
-2.46541e-06
4.54749e-05
-2.32402e-06
4.58351e-05
-2.21075e-06
4.61774e-05
-2.12518e-06
4.65126e-05
-2.06873e-06
-2.04947e-06
-4.22309e-07
8.02127e-07
-9.63005e-07
1.35837e-06
-1.45674e-06
1.48886e-06
-1.8918e-06
1.51529e-06
-2.28967e-06
1.5286e-06
-2.65535e-06
1.52956e-06
-2.98411e-06
1.51352e-06
-3.2698e-06
1.48137e-06
-3.50888e-06
1.43572e-06
-3.70343e-06
1.38363e-06
-3.8564e-06
1.32764e-06
-3.97072e-06
1.26917e-06
-4.04926e-06
1.20942e-06
-4.0947e-06
1.14931e-06
-4.10951e-06
1.08948e-06
-4.09587e-06
1.0304e-06
-4.05573e-06
9.72401e-07
-3.99066e-06
9.15547e-07
-3.90195e-06
8.59918e-07
-3.79062e-06
8.05655e-07
-3.65745e-06
7.52809e-07
-3.50292e-06
7.01338e-07
-3.32724e-06
6.51109e-07
-3.13032e-06
6.01807e-07
-2.91174e-06
5.53076e-07
-2.67075e-06
5.04409e-07
-2.40651e-06
4.55664e-07
-2.11794e-06
4.06285e-07
-1.80361e-06
3.55437e-07
-1.4619e-06
3.02358e-07
-1.09097e-06
2.46185e-07
-6.88706e-07
1.85862e-07
-2.52589e-07
1.20189e-07
2.2072e-07
4.74798e-08
7.33928e-07
-3.21185e-08
1.28886e-06
-1.18084e-07
1.89e-06
-2.14337e-07
2.54137e-06
-3.21683e-07
3.24689e-06
-4.41828e-07
4.01041e-06
-5.77167e-07
4.83484e-06
-7.30306e-07
5.72135e-06
-9.04136e-07
6.67675e-06
-1.10152e-06
7.70013e-06
-1.32694e-06
8.79008e-06
-1.58494e-06
9.94465e-06
-1.87738e-06
1.11606e-05
-2.20674e-06
1.2435e-05
-2.57169e-06
1.37622e-05
-2.97226e-06
1.51366e-05
-3.40417e-06
1.65532e-05
-3.86338e-06
1.80059e-05
-4.3407e-06
1.94886e-05
-4.83043e-06
2.09956e-05
-5.3202e-06
2.25194e-05
-5.80363e-06
2.40526e-05
-6.26648e-06
2.55863e-05
-6.70308e-06
2.71118e-05
-7.0985e-06
2.8619e-05
-7.44956e-06
3.00991e-05
-7.74226e-06
3.15421e-05
-7.97722e-06
3.29394e-05
-8.14371e-06
3.42831e-05
-8.24775e-06
3.55673e-05
-8.28103e-06
3.67868e-05
-8.25391e-06
3.79381e-05
-8.16043e-06
3.90192e-05
-8.01485e-06
4.00288e-05
-7.8129e-06
4.09677e-05
-7.57167e-06
4.18368e-05
-7.2875e-06
4.2639e-05
-6.97897e-06
4.33765e-05
-6.64189e-06
4.40539e-05
-6.2952e-06
4.46737e-05
-5.93336e-06
4.52415e-05
-5.57492e-06
4.57594e-05
-5.2126e-06
4.62337e-05
-4.86426e-06
4.6666e-05
-4.52086e-06
4.70627e-05
-4.19952e-06
4.74244e-05
-3.8896e-06
4.77581e-05
-3.60757e-06
4.80634e-05
-3.34144e-06
4.83474e-05
-3.10726e-06
4.86085e-05
-2.89205e-06
4.88547e-05
-2.71158e-06
4.9083e-05
-2.55228e-06
4.9302e-05
-2.42978e-06
4.95073e-05
-2.33044e-06
4.97085e-05
-2.26995e-06
-2.24023e-06
-2.66891e-07
1.06902e-06
-8.63519e-07
1.955e-06
-1.48485e-06
2.11019e-06
-2.00519e-06
2.03563e-06
-2.39713e-06
1.92055e-06
-2.66337e-06
1.7958e-06
-2.8216e-06
1.67175e-06
-2.89201e-06
1.55178e-06
-2.89197e-06
1.43569e-06
-2.83247e-06
1.32413e-06
-2.72182e-06
1.217e-06
-2.56661e-06
1.11396e-06
-2.37249e-06
1.0153e-06
-2.1443e-06
9.21117e-07
-1.88611e-06
8.31291e-07
-1.60127e-06
7.4556e-07
-1.29262e-06
6.63748e-07
-9.62256e-07
5.85182e-07
-6.11852e-07
5.09514e-07
-2.42737e-07
4.3654e-07
1.44187e-07
3.65885e-07
5.48421e-07
2.97104e-07
9.6988e-07
2.29649e-07
1.40897e-06
1.62719e-07
1.86645e-06
9.55915e-08
2.34389e-06
2.69683e-08
2.84165e-06
-4.20975e-08
3.36101e-06
-1.13071e-07
3.90412e-06
-1.87672e-07
4.47299e-06
-2.66515e-07
5.06976e-06
-3.50583e-07
5.69672e-06
-4.41101e-07
6.35616e-06
-5.39246e-07
7.04987e-06
-6.46238e-07
7.78071e-06
-7.62949e-07
8.55323e-06
-8.9061e-07
9.36976e-06
-1.03087e-06
1.02335e-05
-1.18543e-06
1.11475e-05
-1.35583e-06
1.21146e-05
-1.54425e-06
1.3137e-05
-1.75273e-06
1.42169e-05
-1.98397e-06
1.53554e-05
-2.2401e-06
1.65523e-05
-2.52379e-06
1.78049e-05
-2.83759e-06
1.91104e-05
-3.18287e-06
2.04638e-05
-3.56016e-06
2.18601e-05
-3.96799e-06
2.32922e-05
-4.40435e-06
2.47527e-05
-4.8646e-06
2.62327e-05
-5.34343e-06
2.77239e-05
-5.83189e-06
2.92162e-05
-6.32274e-06
3.07006e-05
-6.80459e-06
3.21664e-05
-7.26941e-06
3.36041e-05
-7.70424e-06
3.50028e-05
-8.10174e-06
3.63534e-05
-8.44913e-06
3.76463e-05
-8.74247e-06
3.88744e-05
-8.97035e-06
4.00301e-05
-9.13288e-06
4.11087e-05
-9.22237e-06
4.21066e-05
-9.24567e-06
4.30235e-05
-9.1979e-06
4.38596e-05
-9.08994e-06
4.46171e-05
-8.91795e-06
4.52991e-05
-8.69685e-06
4.59099e-05
-8.42372e-06
4.64546e-05
-8.11639e-06
4.69385e-05
-7.77139e-06
4.73677e-05
-7.40812e-06
4.77472e-05
-7.02145e-06
4.80834e-05
-6.63141e-06
4.83806e-05
-6.23048e-06
4.86445e-05
-5.83884e-06
4.88782e-05
-5.44633e-06
4.90872e-05
-5.0732e-06
4.9273e-05
-4.70669e-06
4.94407e-05
-4.36727e-06
4.95907e-05
-4.03961e-06
4.97279e-05
-3.74471e-06
4.98513e-05
-3.46484e-06
4.99658e-05
-3.22183e-06
5.00695e-05
-2.99576e-06
5.01676e-05
-2.80964e-06
5.02568e-05
-2.64149e-06
5.03429e-05
-2.51588e-06
5.04214e-05
-2.4089e-06
5.04982e-05
-2.34675e-06
-2.30669e-06
-1.49624e-06
2.56526e-06
-1.94808e-06
2.40685e-06
-2.11429e-06
2.2764e-06
-2.13154e-06
2.05288e-06
-2.01937e-06
1.80838e-06
-1.80149e-06
1.57791e-06
-1.49706e-06
1.36733e-06
-1.12045e-06
1.17517e-06
-6.84352e-07
9.99587e-07
-2.01017e-07
8.40794e-07
3.20285e-07
6.95695e-07
8.71907e-07
5.62333e-07
1.44718e-06
4.40022e-07
2.04107e-06
3.27225e-07
2.64978e-06
2.22585e-07
3.27019e-06
1.25146e-07
3.89938e-06
3.45625e-08
4.53723e-06
-5.26674e-08
5.1827e-06
-1.35958e-07
5.83453e-06
-2.15285e-07
6.49252e-06
-2.92113e-07
7.15674e-06
-3.67111e-07
7.82751e-06
-4.4112e-07
8.50642e-06
-5.1619e-07
9.19465e-06
-5.92638e-07
9.89299e-06
-6.71372e-07
1.0604e-05
-7.5314e-07
1.13301e-05
-8.39151e-07
1.20731e-05
-9.30651e-07
1.28353e-05
-1.02876e-06
1.36193e-05
-1.13453e-06
1.44273e-05
-1.24917e-06
1.52619e-05
-1.37378e-06
1.61253e-05
-1.50968e-06
1.70203e-05
-1.65794e-06
1.79495e-05
-1.81982e-06
1.89151e-05
-1.99648e-06
1.99193e-05
-2.18959e-06
2.09639e-05
-2.40041e-06
2.20503e-05
-2.63073e-06
2.31796e-05
-2.88196e-06
2.43516e-05
-3.15603e-06
2.55656e-05
-3.45404e-06
2.68192e-05
-3.7774e-06
2.81083e-05
-4.12674e-06
2.94279e-05
-4.50241e-06
3.07709e-05
-4.90317e-06
3.21298e-05
-5.32686e-06
3.34951e-05
-5.7697e-06
3.48578e-05
-6.22727e-06
3.6206e-05
-6.69166e-06
3.7529e-05
-7.15486e-06
3.88148e-05
-7.60855e-06
4.0053e-05
-8.04282e-06
4.12323e-05
-8.44864e-06
4.23436e-05
-8.81554e-06
4.33777e-05
-9.13593e-06
4.43291e-05
-9.40044e-06
4.51916e-05
-9.60497e-06
4.59636e-05
-9.74234e-06
4.66437e-05
-9.813e-06
4.72335e-05
-9.81219e-06
4.77352e-05
-9.74739e-06
4.81559e-05
-9.61856e-06
4.85014e-05
-9.43542e-06
4.87798e-05
-9.19637e-06
4.89986e-05
-8.91571e-06
4.91665e-05
-8.59161e-06
4.92913e-05
-8.24115e-06
4.93806e-05
-7.86064e-06
4.94414e-05
-7.46895e-06
4.94795e-05
-7.05956e-06
4.95007e-05
-6.65262e-06
4.95085e-05
-6.23828e-06
4.95075e-05
-5.83786e-06
4.94992e-05
-5.43804e-06
4.94874e-05
-5.06141e-06
4.94719e-05
-4.69118e-06
4.94561e-05
-4.35141e-06
4.94383e-05
-4.02182e-06
4.94218e-05
-3.72826e-06
4.9404e-05
-3.44703e-06
4.93883e-05
-3.20615e-06
4.93711e-05
-2.97852e-06
4.93561e-05
-2.79464e-06
4.93387e-05
-2.62408e-06
4.93231e-05
-2.50025e-06
4.93037e-05
-2.38957e-06
4.92858e-05
-2.32885e-06
-2.278e-06
-8.96532e-07
3.46179e-06
-7.42851e-07
2.25316e-06
-2.52315e-07
1.78586e-06
4.60373e-07
1.34019e-06
1.3301e-06
9.3865e-07
2.29078e-06
6.17234e-07
3.2961e-06
3.62006e-07
4.31878e-06
1.52487e-07
5.34447e-06
-2.60995e-08
6.35882e-06
-1.73558e-07
7.36312e-06
-3.08602e-07
8.35583e-06
-4.3038e-07
9.33265e-06
-5.36799e-07
1.02927e-05
-6.32846e-07
1.1236e-05
-7.20654e-07
1.21626e-05
-8.01521e-07
1.30739e-05
-8.76666e-07
1.3969e-05
-9.47837e-07
1.4849e-05
-1.01594e-06
1.57155e-05
-1.08172e-06
1.65695e-05
-1.14616e-06
1.74129e-05
-1.21049e-06
1.82481e-05
-1.27635e-06
1.90769e-05
-1.34497e-06
1.99015e-05
-1.41726e-06
2.07244e-05
-1.49426e-06
2.15483e-05
-1.57702e-06
2.23758e-05
-1.66664e-06
2.32094e-05
-1.76425e-06
2.40516e-05
-1.87103e-06
2.49051e-05
-1.988e-06
2.57721e-05
-2.11614e-06
2.66547e-05
-2.25641e-06
2.7555e-05
-2.40993e-06
2.84747e-05
-2.57763e-06
2.94154e-05
-2.76054e-06
3.03784e-05
-2.95948e-06
3.13644e-05
-3.17559e-06
3.23737e-05
-3.40969e-06
3.34058e-05
-3.66288e-06
3.44597e-05
-3.93583e-06
3.55336e-05
-4.22994e-06
3.66243e-05
-4.54476e-06
3.77273e-05
-4.88038e-06
3.88367e-05
-5.23617e-06
3.99455e-05
-5.6112e-06
4.10452e-05
-6.00289e-06
4.21267e-05
-6.40829e-06
4.31795e-05
-6.8225e-06
4.41924e-05
-7.24023e-06
4.51548e-05
-7.65402e-06
4.60565e-05
-8.05661e-06
4.68875e-05
-8.43949e-06
4.76394e-05
-8.79477e-06
4.83048e-05
-9.11405e-06
4.88793e-05
-9.39004e-06
4.93595e-05
-9.61613e-06
4.9746e-05
-9.78688e-06
5.00397e-05
-9.89872e-06
5.02461e-05
-9.94874e-06
5.03705e-05
-9.93737e-06
5.04226e-05
-9.86425e-06
5.04101e-05
-9.73495e-06
5.03446e-05
-9.55301e-06
5.02349e-05
-9.32579e-06
5.00925e-05
-9.05395e-06
4.99253e-05
-8.74846e-06
4.97425e-05
-8.40887e-06
4.95502e-05
-8.04883e-06
4.93549e-05
-7.66537e-06
4.91605e-05
-7.27451e-06
4.89706e-05
-6.8697e-06
4.87873e-05
-6.46932e-06
4.86118e-05
-6.06277e-06
4.84452e-05
-5.67122e-06
4.82868e-05
-5.2797e-06
4.81379e-05
-4.91249e-06
4.79964e-05
-4.54969e-06
4.7864e-05
-4.21898e-06
4.77373e-05
-3.89518e-06
4.7619e-05
-3.60994e-06
4.75045e-05
-3.33251e-06
4.73974e-05
-3.09904e-06
4.72918e-05
-2.87289e-06
4.71924e-05
-2.69531e-06
4.70918e-05
-2.52342e-06
4.69958e-05
-2.40431e-06
4.6895e-05
-2.28877e-06
4.67966e-05
-2.23043e-06
-2.17176e-06
3.65758e-06
-1.95796e-07
6.38386e-06
-4.73111e-07
8.79588e-06
-6.26154e-07
1.09183e-05
-7.82194e-07
1.27939e-05
-9.37026e-07
1.44871e-05
-1.0759e-06
1.60424e-05
-1.19328e-06
1.74768e-05
-1.28196e-06
1.88165e-05
-1.36575e-06
2.00833e-05
-1.44038e-06
2.1281e-05
-1.50636e-06
2.24163e-05
-1.56564e-06
2.34983e-05
-1.61884e-06
2.45325e-05
-1.66696e-06
2.55228e-05
-1.71099e-06
2.64732e-05
-1.7519e-06
2.73871e-05
-1.79056e-06
2.82672e-05
-1.82797e-06
2.91164e-05
-1.86517e-06
2.99378e-05
-1.90313e-06
3.07345e-05
-1.94283e-06
3.15095e-05
-1.98546e-06
3.22654e-05
-2.03229e-06
3.30049e-05
-2.0845e-06
3.37308e-05
-2.14317e-06
3.44459e-05
-2.20929e-06
3.51527e-05
-2.28383e-06
3.58538e-05
-2.36773e-06
3.65514e-05
-2.46193e-06
3.7248e-05
-2.56754e-06
3.79454e-05
-2.68548e-06
3.86453e-05
-2.81603e-06
3.9349e-05
-2.96012e-06
4.00576e-05
-3.11849e-06
4.07717e-05
-3.29175e-06
4.14917e-05
-3.4805e-06
4.22174e-05
-3.68519e-06
4.29481e-05
-3.90633e-06
4.36827e-05
-4.14425e-06
4.44191e-05
-4.39928e-06
4.51547e-05
-4.67145e-06
4.58855e-05
-4.96072e-06
4.66071e-05
-5.26632e-06
4.7314e-05
-5.58734e-06
4.8e-05
-5.92217e-06
4.86577e-05
-6.26888e-06
4.92792e-05
-6.62441e-06
4.98562e-05
-6.98526e-06
5.03802e-05
-7.34656e-06
5.08432e-05
-7.7032e-06
5.1238e-05
-8.04878e-06
5.15585e-05
-8.37717e-06
5.18003e-05
-8.68127e-06
5.19606e-05
-8.95509e-06
5.20388e-05
-9.1922e-06
5.2037e-05
-9.38827e-06
5.19593e-05
-9.53846e-06
5.18126e-05
-9.64018e-06
5.16046e-05
-9.69069e-06
5.13453e-05
-9.68949e-06
5.10441e-05
-9.63614e-06
5.0713e-05
-9.53316e-06
5.03612e-05
-9.38309e-06
4.99978e-05
-9.18969e-06
4.96293e-05
-8.95729e-06
4.92639e-05
-8.68849e-06
4.89043e-05
-8.38889e-06
4.85557e-05
-8.06024e-06
4.82176e-05
-7.71074e-06
4.7893e-05
-7.34082e-06
4.75799e-05
-6.96136e-06
4.72799e-05
-6.56972e-06
4.699e-05
-6.17942e-06
4.67112e-05
-5.784e-06
4.64407e-05
-5.40069e-06
4.61794e-05
-5.01835e-06
4.59252e-05
-4.65831e-06
4.56788e-05
-4.30328e-06
4.54392e-05
-3.97941e-06
4.52062e-05
-3.6622e-06
4.49802e-05
-3.38389e-06
4.47593e-05
-3.11162e-06
4.45454e-05
-2.88512e-06
4.43344e-05
-2.66189e-06
4.41299e-05
-2.49085e-06
4.39249e-05
-2.31846e-06
4.37254e-05
-2.20476e-06
4.35202e-05
-2.08356e-06
4.33175e-05
-2.02774e-06
-1.96246e-06
3.8613e-05
1.10801e-08
3.85823e-05
-4.42414e-07
3.87227e-05
-7.66517e-07
3.89494e-05
-1.00892e-06
3.92245e-05
-1.21214e-06
3.95422e-05
-1.39359e-06
3.99037e-05
-1.55477e-06
4.03105e-05
-1.68877e-06
4.07425e-05
-1.79772e-06
4.11893e-05
-1.88722e-06
4.16443e-05
-1.96136e-06
4.21018e-05
-2.02315e-06
4.25578e-05
-2.07487e-06
4.30092e-05
-2.1183e-06
4.34533e-05
-2.1551e-06
4.38883e-05
-2.18687e-06
4.43129e-05
-2.21516e-06
4.47264e-05
-2.24146e-06
4.51284e-05
-2.26725e-06
4.55193e-05
-2.29398e-06
4.58995e-05
-2.32304e-06
4.62698e-05
-2.35576e-06
4.6631e-05
-2.3935e-06
4.6984e-05
-2.43752e-06
4.73299e-05
-2.48904e-06
4.76697e-05
-2.54911e-06
4.80046e-05
-2.61869e-06
4.83355e-05
-2.69866e-06
4.86635e-05
-2.78986e-06
4.8989e-05
-2.89304e-06
4.93123e-05
-3.00885e-06
4.96341e-05
-3.13775e-06
4.99542e-05
-3.28023e-06
5.02724e-05
-3.4367e-06
5.05881e-05
-3.60751e-06
5.09005e-05
-3.7929e-06
5.12083e-05
-3.99301e-06
5.15099e-05
-4.2079e-06
5.18032e-05
-4.43751e-06
5.20855e-05
-4.68161e-06
5.23538e-05
-4.93977e-06
5.26044e-05
-5.21131e-06
5.28333e-05
-5.49521e-06
5.3036e-05
-5.79006e-06
5.32078e-05
-6.09398e-06
5.33436e-05
-6.40466e-06
5.34385e-05
-6.71929e-06
5.34877e-05
-7.03448e-06
5.34873e-05
-7.34617e-06
5.34341e-05
-7.64994e-06
5.33261e-05
-7.94085e-06
5.3163e-05
-8.21399e-06
5.29458e-05
-8.46413e-06
5.26772e-05
-8.68648e-06
5.23614e-05
-8.87637e-06
5.20045e-05
-9.03134e-06
5.16135e-05
-9.14754e-06
5.11962e-05
-9.22288e-06
5.07604e-05
-9.25485e-06
5.03134e-05
-9.24249e-06
4.98615e-05
-9.18419e-06
4.94094e-05
-9.08112e-06
4.896e-05
-8.93367e-06
4.85153e-05
-8.74495e-06
4.80747e-05
-8.51676e-06
4.76391e-05
-8.25285e-06
4.72059e-05
-7.95567e-06
4.6775e-05
-7.62935e-06
4.63427e-05
-7.27843e-06
4.591e-05
-6.90813e-06
4.54735e-05
-6.52493e-06
4.50363e-05
-6.13246e-06
4.45952e-05
-5.73834e-06
4.41549e-05
-5.34371e-06
4.37127e-05
-4.95846e-06
4.32745e-05
-4.58017e-06
4.28375e-05
-4.22136e-06
4.24085e-05
-3.87422e-06
4.19841e-05
-3.555e-06
4.15709e-05
-3.24898e-06
4.1165e-05
-2.978e-06
4.0772e-05
-2.71865e-06
4.03876e-05
-2.50073e-06
4.00154e-05
-2.28972e-06
3.96513e-05
-2.12669e-06
3.92961e-05
-1.96327e-06
3.89471e-05
-1.85577e-06
3.86013e-05
-1.73776e-06
3.82588e-05
-1.6852e-06
-1.61278e-06
5.29865e-05
8.87421e-08
5.28929e-05
-3.48829e-07
5.28643e-05
-7.37875e-07
5.28883e-05
-1.03293e-06
5.2934e-05
-1.25779e-06
5.29821e-05
-1.44173e-06
5.3029e-05
-1.60168e-06
5.30824e-05
-1.74214e-06
5.3147e-05
-1.86231e-06
5.3222e-05
-1.96224e-06
5.33044e-05
-2.04377e-06
5.33909e-05
-2.1097e-06
5.3479e-05
-2.16296e-06
5.35668e-05
-2.20609e-06
5.3653e-05
-2.24128e-06
5.37365e-05
-2.27042e-06
5.38167e-05
-2.29528e-06
5.38928e-05
-2.31757e-06
5.39645e-05
-2.33897e-06
5.40316e-05
-2.3611e-06
5.40941e-05
-2.38554e-06
5.41521e-05
-2.41373e-06
5.42057e-05
-2.44709e-06
5.42551e-05
-2.48693e-06
5.43005e-05
-2.53448e-06
5.43422e-05
-2.59079e-06
5.43803e-05
-2.65683e-06
5.44151e-05
-2.7334e-06
5.44464e-05
-2.82123e-06
5.44743e-05
-2.92091e-06
5.44984e-05
-3.03298e-06
5.45185e-05
-3.15785e-06
5.45341e-05
-3.29583e-06
5.45446e-05
-3.44716e-06
5.45491e-05
-3.61201e-06
5.45466e-05
-3.79044e-06
5.45361e-05
-3.98242e-06
5.4516e-05
-4.18783e-06
5.44849e-05
-4.40641e-06
5.4441e-05
-4.63774e-06
5.43825e-05
-4.88123e-06
5.43072e-05
-5.13607e-06
5.42132e-05
-5.40113e-06
5.40981e-05
-5.67499e-06
5.39598e-05
-5.9557e-06
5.37962e-05
-6.24106e-06
5.36057e-05
-6.52879e-06
5.3387e-05
-6.8158e-06
5.31394e-05
-7.09856e-06
5.28627e-05
-7.37326e-06
5.25576e-05
-7.63573e-06
5.22253e-05
-7.8817e-06
5.18679e-05
-8.1067e-06
5.14878e-05
-8.30638e-06
5.1088e-05
-8.47654e-06
5.06703e-05
-8.6137e-06
5.02371e-05
-8.71431e-06
4.97896e-05
-8.77539e-06
4.9329e-05
-8.7942e-06
4.88545e-05
-8.76806e-06
4.83649e-05
-8.69462e-06
4.78576e-05
-8.57378e-06
4.73301e-05
-8.40621e-06
4.67798e-05
-8.19457e-06
4.62035e-05
-7.94054e-06
4.55995e-05
-7.64885e-06
4.49676e-05
-7.32375e-06
4.43088e-05
-6.97052e-06
4.36242e-05
-6.59382e-06
4.29175e-05
-6.20147e-06
4.21915e-05
-5.79886e-06
4.14523e-05
-5.39334e-06
4.07036e-05
-4.98962e-06
3.99538e-05
-4.5939e-06
3.92057e-05
-4.21032e-06
3.84684e-05
-3.84292e-06
3.77424e-05
-3.49538e-06
3.70372e-05
-3.16903e-06
3.63503e-05
-2.8681e-06
3.56915e-05
-2.59015e-06
3.50546e-05
-2.34107e-06
3.44495e-05
-2.11356e-06
3.38664e-05
-1.91759e-06
3.3315e-05
-1.73833e-06
3.27816e-05
-1.59337e-06
3.22766e-05
-1.45822e-06
3.17836e-05
-1.36277e-06
3.13128e-05
-1.26698e-06
3.08473e-05
-1.21968e-06
-1.15367e-06
5.43223e-05
-2.31375e-07
5.45043e-05
-5.30828e-07
5.46085e-05
-8.42092e-07
5.4696e-05
-1.12035e-06
5.4783e-05
-1.34482e-06