/*--------------------------------*- C++ -*----------------------------------*\
| =========                 |                                                 |
| \\      /  F ield         | OpenFOAM: The Open Source CFD Toolbox           |
|  \\    /   O peration     | Version:  2306                                  |
|   \\  /    A nd           | Website:  www.openfoam.com                      |
|    \\/     M anipulation  |                                                 |
\*---------------------------------------------------------------------------*/
FoamFile
{
    version     2.0;
    format      ascii;
    arch        "LSB;label=32;scalar=64";
    class       volVectorField;
    location    "0.27";
    object      U;
}
// * * * * * * * * * * * * * * * * * * * * * * * * * * * * * * * * * * * * * //

dimensions      [0 1 -1 0 0 0 0];

internalField   nonuniform List<vector> 
475
(
(0.814401 0.100525 0)
(0.775462 0.09191 0)
(0.700509 0.0435588 0)
(0.6691 -0.00179401 0)
(0.669113 -0.067189 0)
(1.01651 0.130052 0)
(1.13259 0.125203 0)
(1.20454 0.0589856 0)
(1.24616 -0.0105042 0)
(1.26541 -0.104078 0)
(1.0341 -0.0082897 0)
(1.18114 -0.0230603 0)
(1.29871 -0.0416399 0)
(1.36208 -0.0693144 0)
(1.3764 -0.116577 0)
(1.01508 -0.141435 0)
(1.11957 -0.157287 0)
(1.16704 -0.118721 0)
(1.16578 -0.0950442 0)
(1.1326 -0.0924798 0)
(0.81272 -0.103758 0)
(0.760478 -0.101658 0)
(0.656278 -0.0637272 0)
(0.571946 -0.0402632 0)
(0.512388 -0.0299047 0)
(-0.00923253 0.00816071 0)
(-0.023196 0.00602327 0)
(-0.0238724 -0.000461003 0)
(-0.00950113 -0.00599105 0)
(0.0148589 -0.00903329 0)
(0.0432568 -0.00992367 0)
(0.0710569 -0.00922287 0)
(0.0955837 -0.00765687 0)
(0.115523 -0.00580849 0)
(0.13063 -0.00404884 0)
(0.141322 -0.00256835 0)
(0.148337 -0.00142968 0)
(0.152498 -0.00061833 0)
(0.154576 -8.23807e-05 0)
(0.155224 0.000241234 0)
(0.154958 0.000411897 0)
(0.154158 0.000479739 0)
(0.153097 0.000481856 0)
(0.151956 0.000445052 0)
(0.150855 0.000387943 0)
(0.149862 0.000322733 0)
(0.149013 0.000257109 0)
(0.148321 0.000195754 0)
(0.147783 0.000141376 0)
(0.147386 9.53571e-05 0)
(0.147111 5.81597e-05 0)
(0.146937 2.9577e-05 0)
(0.146842 8.90995e-06 0)
(0.146805 -4.88694e-06 0)
(0.146807 -1.30639e-05 0)
(0.146833 -1.68157e-05 0)
(0.146871 -1.75071e-05 0)
(0.146912 -1.62082e-05 0)
(0.146952 -1.38086e-05 0)
(0.146986 -1.09864e-05 0)
(0.147014 -8.20506e-06 0)
(0.147034 -5.743e-06 0)
(0.147049 -3.73321e-06 0)
(0.147059 -2.20517e-06 0)
(0.147065 -1.12339e-06 0)
(0.147068 -4.18975e-07 0)
(0.14707 -1.30694e-08 0)
(0.14707 1.6751e-07 0)
(0.14707 1.84265e-07 0)
(0.14707 1.13189e-07 0)
(-0.012802 0.026787 0)
(-0.0235556 0.0117442 0)
(-0.00386355 -0.0154912 0)
(0.0387886 -0.0369299 0)
(0.0944283 -0.0484219 0)
(0.153926 -0.0511039 0)
(0.210683 -0.047495 0)
(0.260697 -0.0403728 0)
(0.302065 -0.0319492 0)
(0.334428 -0.0236966 0)
(0.358421 -0.0164453 0)
(0.37521 -0.010549 0)
(0.38616 -0.00604866 0)
(0.392622 -0.00280797 0)
(0.395803 -0.00061158 0)
(0.396711 0.000771998 0)
(0.396144 0.0015572 0)
(0.394703 0.00191827 0)
(0.392827 0.00199354 0)
(0.390821 0.0018878 0)
(0.388885 0.00167702 0)
(0.387143 0.00141474 0)
(0.385658 0.00113791 0)
(0.384455 0.000871328 0)
(0.383529 0.000630855 0)
(0.382854 0.000425581 0)
(0.382397 0.000259407 0)
(0.382115 0.000132268 0)
(0.381968 4.11941e-05 0)
(0.381918 -1.87097e-05 0)
(0.381931 -5.35983e-05 0)
(0.381982 -6.94139e-05 0)
(0.382049 -7.19077e-05 0)
(0.38212 -6.6062e-05 0)
(0.382186 -5.58228e-05 0)
(0.382242 -4.4062e-05 0)
(0.382285 -3.26739e-05 0)
(0.382318 -2.27447e-05 0)
(0.382341 -1.47512e-05 0)
(0.382356 -8.75578e-06 0)
(0.382365 -4.57436e-06 0)
(0.38237 -1.90667e-06 0)
(0.382372 -4.27338e-07 0)
(0.382373 1.64844e-07 0)
(0.382373 1.84265e-07 0)
(-0.00603388 0.0407564 0)
(0.00773428 -0.00408896 0)
(0.0676417 -0.0619279 0)
(0.142116 -0.101123 0)
(0.219822 -0.119213 0)
(0.294068 -0.120354 0)
(0.360539 -0.110102 0)
(0.417073 -0.093664 0)
(0.463105 -0.0750467 0)
(0.499089 -0.056923 0)
(0.52607 -0.0408372 0)
(0.545388 -0.0274912 0)
(0.558462 -0.0170175 0)
(0.566651 -0.00920487 0)
(0.571174 -0.00366989 0)
(0.573068 2.76484e-05 0)
(0.573167 0.00231397 0)
(0.572124 0.00355807 0)
(0.570437 0.00406458 0)
(0.568468 0.00407429 0)
(0.566465 0.00377006 0)
(0.564592 0.00328699 0)
(0.562946 0.00272281 0)
(0.561574 0.00214652 0)
(0.560488 0.00160485 0)
(0.559673 0.00112719 0)
(0.559099 0.000729165 0)
(0.558726 0.000415687 0)
(0.558511 0.000183564 0)
(0.558413 2.40001e-05 0)
(0.558396 -7.5362e-05 0)
(0.558429 -0.000127684 0)
(0.558488 -0.000145946 0)
(0.558558 -0.000141757 0)
(0.558625 -0.000124604 0)
(0.558685 -0.000101625 0)
(0.558733 -7.77294e-05 0)
(0.55877 -5.59259e-05 0)
(0.558797 -3.77407e-05 0)
(0.558815 -2.3654e-05 0)
(0.558827 -1.34854e-05 0)
(0.558834 -6.70366e-06 0)
(0.558837 -2.64891e-06 0)
(0.558839 -6.66953e-07 0)
(0.558839 -1.26022e-07 0)
(0.0357743 0.042894 0)
(0.0981026 -0.0629334 0)
(0.207679 -0.148198 0)
(0.309811 -0.191248 0)
(0.395842 -0.202985 0)
(0.467021 -0.193839 0)
(0.524691 -0.172067 0)
(0.570323 -0.144192 0)
(0.605639 -0.114957 0)
(0.632358 -0.0874339 0)
(0.652041 -0.0633337 0)
(0.666061 -0.0433779 0)
(0.675607 -0.0276242 0)
(0.681697 -0.0157304 0)
(0.685183 -0.00715207 0)
(0.686777 -0.00127838 0)
(0.687046 0.00248089 0)
(0.686439 0.00464982 0)
(0.685311 0.00566827 0)
(0.683925 0.00588898 0)
(0.682473 0.00558586 0)
(0.681082 0.0049667 0)
(0.679835 0.00418585 0)
(0.678776 0.00335531 0)
(0.677922 0.00255342 0)
(0.677269 0.00183154 0)
(0.676798 0.00121922 0)
(0.676482 0.0007286 0)
(0.67629 0.000358456 0)
(0.676193 9.80064e-05 0)
(0.676163 -6.9221e-05 0)
(0.676175 -0.000162709 0)
(0.676212 -0.0002018 0)
(0.676259 -0.000204064 0)
(0.676308 -0.000184142 0)
(0.676352 -0.000153276 0)
(0.676388 -0.000119383 0)
(0.676417 -8.74726e-05 0)
(0.676438 -6.02497e-05 0)
(0.676453 -3.8751e-05 0)
(0.676462 -2.29301e-05 0)
(0.676468 -1.21334e-05 0)
(0.676471 -5.45029e-06 0)
(0.676473 -1.93538e-06 0)
(0.676473 -6.97369e-07 0)
(0.195917 -0.12015 0)
(0.306758 -0.221998 0)
(0.451155 -0.27562 0)
(0.553149 -0.290675 0)
(0.618717 -0.278821 0)
(0.661813 -0.250768 0)
(0.690366 -0.214397 0)
(0.70899 -0.175414 0)
(0.720932 -0.137771 0)
(0.728524 -0.103899 0)
(0.733327 -0.0750046 0)
(0.736337 -0.0514244 0)
(0.738169 -0.0329322 0)
(0.739204 -0.0189822 0)
(0.739682 -0.00888244 0)
(0.739766 -0.00191226 0)
(0.739571 0.00260402 0)
(0.739185 0.00526221 0)
(0.738685 0.00656413 0)
(0.738134 0.00691257 0)
(0.737578 0.00662347 0)
(0.737053 0.00594003 0)
(0.736584 0.00504583 0)
(0.736185 0.00407633 0)
(0.735862 0.00312806 0)
(0.735612 0.00226569 0)
(0.73543 0.00152774 0)
(0.735306 0.000931464 0)
(0.735229 0.000477563 0)
(0.735189 0.000154782 0)
(0.735174 -5.55823e-05 0)
(0.735176 -0.000176044 0)
(0.735188 -0.000229713 0)
(0.735205 -0.000237635 0)
(0.735222 -0.000217475 0)
(0.735238 -0.000182939 0)
(0.735252 -0.000143786 0)
(0.735263 -0.000106286 0)
(0.735271 -7.39121e-05 0)
(0.735276 -4.80952e-05 0)
(0.73528 -2.89175e-05 0)
(0.735282 -1.56891e-05 0)
(0.735283 -7.37534e-06 0)
(0.735284 -2.87342e-06 0)
(0.735284 -1.14775e-06 0)
(0.83152 -0.300822 0)
(0.829638 -0.35148 0)
(0.842511 -0.357497 0)
(0.8537 -0.340792 0)
(0.851017 -0.307295 0)
(0.838229 -0.264505 0)
(0.820793 -0.218819 0)
(0.802246 -0.174588 0)
(0.784792 -0.13448 0)
(0.769723 -0.0998736 0)
(0.757577 -0.0712013 0)
(0.748351 -0.0482718 0)
(0.741728 -0.0305371 0)
(0.737254 -0.0172803 0)
(0.734447 -0.00773803 0)
(0.732869 -0.00117735 0)
(0.732152 0.00305014 0)
(0.732002 0.0055215 0)
(0.732203 0.00670904 0)
(0.732595 0.00699059 0)
(0.733068 0.00666418 0)
(0.733551 0.00596086 0)
(0.734 0.00505646 0)
(0.734388 0.00408183 0)
(0.734706 0.00313097 0)
(0.734953 0.00226724 0)
(0.735134 0.00152853 0)
(0.735257 0.000931815 0)
(0.735333 0.000477665 0)
(0.735373 0.000154755 0)
(0.735388 -5.56619e-05 0)
(0.735386 -0.000176131 0)
(0.735374 -0.000229787 0)
(0.735358 -0.000237689 0)
(0.735341 -0.00021751 0)
(0.735325 -0.00018296 0)
(0.735311 -0.000143797 0)
(0.7353 -0.00010629 0)
(0.735292 -7.39136e-05 0)
(0.735287 -4.80954e-05 0)
(0.735283 -2.89174e-05 0)
(0.735281 -1.56893e-05 0)
(0.73528 -7.37639e-06 0)
(0.735279 -2.87571e-06 0)
(0.735279 -1.15071e-06 0)
(1.27141 -0.249438 0)
(1.20481 -0.309892 0)
(1.1261 -0.317525 0)
(1.05297 -0.297888 0)
(0.982687 -0.262888 0)
(0.916407 -0.220985 0)
(0.857311 -0.178494 0)
(0.807176 -0.139224 0)
(0.76636 -0.105018 0)
(0.734407 -0.0764673 0)
(0.710371 -0.0534349 0)
(0.693047 -0.0354035 0)
(0.681161 -0.0216933 0)
(0.673512 -0.0115905 0)
(0.669042 -0.00441502 0)
(0.666855 0.000444263 0)
(0.666248 0.00351309 0)
(0.666674 0.00524169 0)
(0.66771 0.00599403 0)
(0.66905 0.00606171 0)
(0.670481 0.00567483 0)
(0.671861 0.00501188 0)
(0.673103 0.00420896 0)
(0.674158 0.00336745 0)
(0.67501 0.00256 0)
(0.675663 0.00183512 0)
(0.676133 0.00122107 0)
(0.676449 0.000729424 0)
(0.67664 0.000358684 0)
(0.676738 9.7925e-05 0)
(0.676768 -6.94249e-05 0)
(0.676756 -0.000162927 0)
(0.676719 -0.000201982 0)
(0.676672 -0.000204195 0)
(0.676623 -0.000184225 0)
(0.676579 -0.000153323 0)
(0.676543 -0.000119406 0)
(0.676514 -8.74824e-05 0)
(0.676493 -6.02523e-05 0)
(0.676478 -3.87508e-05 0)
(0.676469 -2.29294e-05 0)
(0.676463 -1.21338e-05 0)
(0.67646 -5.45296e-06 0)
(0.676458 -1.94123e-06 0)
(0.676458 -7.04918e-07 0)
(1.34033 -0.18501 0)
(1.24918 -0.219509 0)
(1.13626 -0.218925 0)
(1.02491 -0.199027 0)
(0.922368 -0.170386 0)
(0.832001 -0.139179 0)
(0.756067 -0.109372 0)
(0.694905 -0.0831054 0)
(0.647367 -0.0611175 0)
(0.611648 -0.0433519 0)
(0.585765 -0.0293936 0)
(0.56779 -0.0187029 0)
(0.555976 -0.0107297 0)
(0.548821 -0.00496507 0)
(0.545073 -0.000959338 0)
(0.543721 0.00167592 0)
(0.54398 0.00327176 0)
(0.545247 0.00408978 0)
(0.547066 0.00434733 0)
(0.54911 0.00421934 0)
(0.551152 0.00384287 0)
(0.553045 0.00332363 0)
(0.554701 0.00274189 0)
(0.556077 0.002157 0)
(0.557165 0.00161086 0)
(0.557981 0.00113062 0)
(0.558556 0.000730978 0)
(0.55893 0.000416476 0)
(0.559145 0.000183746 0)
(0.559243 2.38717e-05 0)
(0.55926 -7.56023e-05 0)
(0.559227 -0.000127925 0)
(0.559168 -0.000146138 0)
(0.559098 -0.000141889 0)
(0.559031 -0.000124685 0)
(0.558971 -0.000101668 0)
(0.558923 -7.77494e-05 0)
(0.558885 -5.59328e-05 0)
(0.558859 -3.77414e-05 0)
(0.55884 -2.36526e-05 0)
(0.558829 -1.34841e-05 0)
(0.558822 -6.70383e-06 0)
(0.558819 -2.65187e-06 0)
(0.558817 -6.73639e-07 0)
(0.558817 -1.34807e-07 0)
(1.06554 -0.105336 0)
(0.96666 -0.109834 0)
(0.855825 -0.100861 0)
(0.750546 -0.085455 0)
(0.658221 -0.0689895 0)
(0.581032 -0.0536823 0)
(0.519109 -0.0404477 0)
(0.471221 -0.0295733 0)
(0.43537 -0.0209325 0)
(0.4094 -0.0142182 0)
(0.391301 -0.00909987 0)
(0.379317 -0.00527946 0)
(0.371962 -0.00250178 0)
(0.368018 -0.000552444 0)
(0.366503 0.000747217 0)
(0.366639 0.0015497 0)
(0.36783 0.00197991 0)
(0.369626 0.00213641 0)
(0.371694 0.00210093 0)
(0.373801 0.00193906 0)
(0.375787 0.00170164 0)
(0.377554 0.00142735 0)
(0.379051 0.00114513 0)
(0.380261 0.000875886 0)
(0.381191 0.0006338 0)
(0.381867 0.000427374 0)
(0.382326 0.000260355 0)
(0.382609 0.000132642 0)
(0.382756 4.12276e-05 0)
(0.382806 -1.88362e-05 0)
(0.382793 -5.37682e-05 0)
(0.382742 -6.95661e-05 0)
(0.382674 -7.202e-05 0)
(0.382603 -6.61339e-05 0)
(0.382537 -5.5863e-05 0)
(0.382482 -4.40812e-05 0)
(0.382438 -3.2681e-05 0)
(0.382405 -2.27456e-05 0)
(0.382382 -1.47496e-05 0)
(0.382367 -8.75362e-06 0)
(0.382358 -4.5727e-06 0)
(0.382353 -1.90618e-06 0)
(0.382351 -4.28754e-07 0)
(0.38235 1.60866e-07 0)
(0.38235 1.785e-07 0)
(0.455457 -0.0271146 0)
(0.394218 -0.0243689 0)
(0.335115 -0.0196588 0)
(0.28434 -0.0147094 0)
(0.243414 -0.0106288 0)
(0.211548 -0.00749738 0)
(0.187459 -0.00514871 0)
(0.16978 -0.00342204 0)
(0.157199 -0.00216712 0)
(0.148574 -0.00125835 0)
(0.142972 -0.000604827 0)
(0.139637 -0.000143638 0)
(0.137964 0.000170282 0)
(0.13747 0.000370901 0)
(0.137776 0.000484266 0)
(0.138587 0.000531951 0)
(0.13968 0.000533549 0)
(0.140891 0.000503043 0)
(0.142103 0.000452026 0)
(0.143238 0.000389789 0)
(0.144246 0.000323312 0)
(0.145102 0.000257682 0)
(0.145799 0.000196492 0)
(0.14634 0.000142124 0)
(0.146739 9.59589e-05 0)
(0.147015 5.85502e-05 0)
(0.14719 2.97716e-05 0)
(0.147285 8.96498e-06 0)
(0.147323 -4.90918e-06 0)
(0.14732 -1.31152e-05 0)
(0.147294 -1.68681e-05 0)
(0.147256 -1.7548e-05 0)
(0.147215 -1.62348e-05 0)
(0.147175 -1.38234e-05 0)
(0.147141 -1.09931e-05 0)
(0.147113 -8.20716e-06 0)
(0.147093 -5.74287e-06 0)
(0.147078 -3.73224e-06 0)
(0.147068 -2.20404e-06 0)
(0.147062 -1.12241e-06 0)
(0.147059 -4.18292e-07 0)
(0.147057 -1.27793e-08 0)
(0.147057 1.67252e-07 0)
(0.147057 1.83229e-07 0)
(0.147057 1.11521e-07 0)
)
;

boundaryField
{
    fixedWalls
    {
        type            noSlip;
    }
    inflowWall
    {
        type            fixedValue;
        value           uniform (1 0 0);
    }
    outflowWall
    {
        type            zeroGradient;
    }
    frontAndBack
    {
        type            empty;
    }
}


// ************************************************************************* //
