/*--------------------------------*- C++ -*----------------------------------*\
| =========                 |                                                 |
| \\      /  F ield         | OpenFOAM: The Open Source CFD Toolbox           |
|  \\    /   O peration     | Version:  2306                                  |
|   \\  /    A nd           | Website:  www.openfoam.com                      |
|    \\/     M anipulation  |                                                 |
\*---------------------------------------------------------------------------*/
FoamFile
{
    version     2.0;
    format      ascii;
    arch        "LSB;label=32;scalar=64";
    class       volScalarField;
    location    "4.79";
    object      p;
}
// * * * * * * * * * * * * * * * * * * * * * * * * * * * * * * * * * * * * * //

dimensions      [0 2 -2 0 0 0 0];

internalField   nonuniform List<scalar> 
1900
(
0.0556469
0.0314262
0.0110348
-0.004305
-0.0153239
-0.0258775
-0.0363167
-0.0484777
-0.0610278
-0.0750759
0.026386
0.0181877
0.0068724
-0.00467954
-0.015703
-0.0258895
-0.0363207
-0.0468315
-0.0583249
-0.0693756
0.0172917
0.0128014
0.00528642
-0.00408086
-0.0141633
-0.0241407
-0.033918
-0.0434683
-0.0528926
-0.0619744
0.0115892
0.00851606
0.00286672
-0.0047809
-0.0136315
-0.0228704
-0.0320598
-0.0409719
-0.0495627
-0.0577207
0.00936326
0.00682797
0.00208949
-0.0045583
-0.0125366
-0.0211395
-0.0298135
-0.0382362
-0.0462583
-0.0537911
0.00999568
0.00751486
0.00290401
-0.00356122
-0.0113
-0.0196039
-0.0279143
-0.035914
-0.0434792
-0.0505809
0.0134495
0.0105033
0.00522185
-0.00186179
-0.00992272
-0.0182105
-0.0262597
-0.0338928
-0.0411019
-0.047922
0.0201471
0.0158513
0.00895311
0.000483461
-0.00833757
-0.0167634
-0.0245984
-0.0319363
-0.0389268
-0.0456321
0.0302867
0.0221872
0.0117507
0.00128886
-0.00801933
-0.0161326
-0.0235033
-0.0305544
-0.0374496
-0.0441487
0.0591364
0.0364636
0.0167561
0.0026925
-0.00696609
-0.0146628
-0.021894
-0.0291147
-0.036275
-0.0431697
-0.0982627
-0.0982962
-0.0983411
-0.0983951
-0.0984554
-0.0985215
-0.0985929
-0.0986685
-0.0987471
-0.0988269
-0.0989065
-0.0989839
-0.0990575
-0.0991256
-0.0991863
-0.0992381
-0.0992793
-0.0993085
-0.0993243
-0.0993255
-0.0993109
-0.0992797
-0.099231
-0.0991642
-0.0990787
-0.0989742
-0.0988503
-0.0987069
-0.0985436
-0.0983602
-0.0981564
-0.0979319
-0.0976862
-0.0974188
-0.0971291
-0.0968159
-0.0964777
-0.0961118
-0.0957137
-0.0952767
-0.0947902
-0.0942395
-0.0936044
-0.0928591
-0.0919722
-0.0909082
-0.089628
-0.0880894
-0.0862459
-0.0840445
-0.0814265
-0.0783278
-0.0746831
-0.0704326
-0.0655274
-0.0599378
-0.0536619
-0.046751
-0.0392634
-0.0312905
-0.0229526
-0.0143969
-0.00578272
0.00272445
0.0109593
0.0187661
0.0260012
0.0325484
0.0383055
0.0432136
0.0472233
0.0503284
0.0525268
0.0538577
0.0543522
0.0540816
0.0530952
0.0514801
0.0492878
0.0466086
0.0434829
0.0399966
0.0361701
0.0320821
0.0277249
0.0231745
0.0183814
0.0134368
0.00821582
0.00288979
-0.0982581
-0.0982898
-0.0983168
-0.0983583
-0.0984095
-0.0984689
-0.098535
-0.0986062
-0.0986808
-0.0987573
-0.098834
-0.0989091
-0.0989808
-0.0990473
-0.0991069
-0.0991578
-0.0991984
-0.0992272
-0.0992427
-0.0992437
-0.099229
-0.0991976
-0.0991486
-0.0990813
-0.098995
-0.0988892
-0.0987636
-0.0986179
-0.0984515
-0.0982644
-0.098056
-0.0978258
-0.0975733
-0.0972974
-0.0969972
-0.0966712
-0.0963174
-0.0959328
-0.0955132
-0.0950523
-0.0945412
-0.093968
-0.0933167
-0.092567
-0.0916935
-0.0906652
-0.0894462
-0.0879954
-0.0862648
-0.0841956
-0.0817188
-0.0787579
-0.0752337
-0.0710785
-0.0662603
-0.0607704
-0.0546013
-0.04776
-0.0403123
-0.0323596
-0.0240245
-0.0154571
-0.00682069
0.00171729
0.00998151
0.0178182
0.0250799
0.0316545
0.0374258
0.0423505
0.046373
0.049492
0.0517009
0.0530449
0.0535503
0.053296
0.0523242
0.0507319
0.0485606
0.0459135
0.0428175
0.0393743
0.0355855
0.0315502
0.027237
0.0227449
0.0180005
0.0131173
0.00798409
0.002762
-0.0981407
-0.0982219
-0.0982675
-0.0983209
-0.098377
-0.0984384
-0.0985062
-0.0985792
-0.0986562
-0.0987354
-0.0988152
-0.0988936
-0.0989687
-0.0990388
-0.0991019
-0.0991563
-0.0992003
-0.0992322
-0.0992506
-0.099254
-0.0992413
-0.0992113
-0.0991633
-0.0990964
-0.0990101
-0.0989039
-0.0987774
-0.0986305
-0.0984628
-0.0982744
-0.0980651
-0.0978344
-0.0975818
-0.0973063
-0.0970067
-0.0966814
-0.0963283
-0.095944
-0.0955243
-0.0950633
-0.0945535
-0.0939859
-0.0933491
-0.0926291
-0.091807
-0.0908561
-0.0897397
-0.0884133
-0.0868246
-0.084906
-0.0825757
-0.0797556
-0.0763753
-0.0723533
-0.0676208
-0.0621553
-0.0559707
-0.0491106
-0.0416409
-0.0336666
-0.0253057
-0.0167166
-0.00808194
0.000445806
0.00869439
0.0165153
0.0237529
0.0303003
0.0360457
0.040941
0.0449326
0.0480238
0.0502075
0.0515343
0.0520294
0.0517767
0.0508162
0.0492495
0.0471148
0.0445189
0.0414856
0.0381192
0.0344207
0.0304883
0.0262953
0.0219352
0.0173512
0.0126391
0.00771859
0.00269914
-0.0982225
-0.0982964
-0.0983007
-0.0983266
-0.0983722
-0.0984343
-0.0985076
-0.0985883
-0.0986736
-0.0987615
-0.0988497
-0.0989362
-0.0990187
-0.0990955
-0.0991646
-0.0992241
-0.0992723
-0.0993077
-0.0993286
-0.0993339
-0.0993221
-0.0992924
-0.0992439
-0.0991757
-0.0990875
-0.0989786
-0.0988488
-0.0986982
-0.0985267
-0.0983345
-0.0981215
-0.0978878
-0.0976329
-0.0973555
-0.0970544
-0.0967279
-0.096374
-0.0959899
-0.0955722
-0.0951159
-0.0946149
-0.0940616
-0.0934485
-0.0927662
-0.091999
-0.0911215
-0.0900921
-0.0888586
-0.0873791
-0.0855753
-0.0833528
-0.0806204
-0.0772902
-0.0733097
-0.0686118
-0.0631854
-0.0570353
-0.0502084
-0.0427779
-0.0348524
-0.0265614
-0.0180609
-0.00952608
-0.00111831
0.00699237
0.0146603
0.0217373
0.0281203
0.0337078
0.0384519
0.0423059
0.045276
0.0473614
0.0486141
0.0490645
0.0487955
0.0478516
0.0463301
0.044274
0.0417829
0.0388867
0.0356797
0.0321718
0.0284488
0.0244979
0.0203972
0.0161108
0.011712
0.00714295
0.00247797
-0.0978968
-0.0981022
-0.098193
-0.0982971
-0.0983958
-0.0984891
-0.0985817
-0.0986769
-0.0987743
-0.0988725
-0.0989693
-0.0990631
-0.0991516
-0.0992331
-0.0993056
-0.0993675
-0.0994171
-0.0994528
-0.0994731
-0.0994766
-0.0994623
-0.099429
-0.0993762
-0.0993033
-0.0992097
-0.0990952
-0.0989595
-0.0988031
-0.0986263
-0.0984293
-0.0982127
-0.0979767
-0.0977207
-0.0974433
-0.0971425
-0.096817
-0.0964651
-0.0960844
-0.0956716
-0.0952226
-0.0947315
-0.0941913
-0.093598
-0.0929437
-0.0922101
-0.0913767
-0.0903927
-0.0892052
-0.08774
-0.0859438
-0.0837237
-0.080993
-0.0776669
-0.0736858
-0.0689998
-0.0635981
-0.0574944
-0.0507412
-0.0434178
-0.0356361
-0.0275299
-0.0192521
-0.0109702
-0.00284652
0.00495753
0.0123013
0.0190514
0.0251091
0.0303881
0.0348439
0.0384424
0.0411924
0.0431037
0.0442275
0.0446027
0.0443071
0.0433921
0.0419459
0.0400181
0.0376959
0.0350174
0.0320619
0.0288503
0.0254516
0.0218677
0.0181584
0.0143068
0.0103661
0.00630353
0.00217419
-0.0987284
-0.0987511
-0.09865
-0.0986051
-0.0986158
-0.0986736
-0.0987615
-0.0988625
-0.0989655
-0.0990672
-0.0991656
-0.0992588
-0.0993451
-0.099423
-0.0994909
-0.0995472
-0.0995905
-0.0996196
-0.0996329
-0.0996291
-0.0996072
-0.0995663
-0.099506
-0.0994257
-0.0993253
-0.0992043
-0.0990626
-0.0989006
-0.098719
-0.0985183
-0.0982989
-0.098061
-0.0978041
-0.0975264
-0.0972249
-0.0969016
-0.0965544
-0.0961792
-0.0957726
-0.0953307
-0.0948483
-0.0943168
-0.0937241
-0.0930607
-0.0923112
-0.091448
-0.0904255
-0.0891901
-0.0876758
-0.0858151
-0.0835238
-0.0807227
-0.0773359
-0.0733113
-0.068613
-0.0632372
-0.0572067
-0.0505803
-0.0434435
-0.0359114
-0.028118
-0.0202133
-0.0123538
-0.00469426
0.00261903
0.00945578
0.0157011
0.0212664
0.0260833
0.0301154
0.0333443
0.0357829
0.0374536
0.038406
0.038688
0.03837
0.0375093
0.0361826
0.0344442
0.0323668
0.0299941
0.0273894
0.0245811
0.0216216
0.0185236
0.0153291
0.0120369
0.00868278
0.00525474
0.00178935
-0.0974029
-0.098049
-0.0982519
-0.0985083
-0.0987236
-0.0988866
-0.0990088
-0.0991098
-0.0992026
-0.0992909
-0.0993748
-0.0994531
-0.0995246
-0.0995878
-0.0996416
-0.0996845
-0.0997155
-0.0997334
-0.0997364
-0.0997232
-0.0996927
-0.099644
-0.0995765
-0.0994898
-0.0993835
-0.0992569
-0.0991099
-0.0989444
-0.0987605
-0.0985582
-0.0983378
-0.0980996
-0.097843
-0.0975665
-0.0972658
-0.0969354
-0.0965772
-0.0961894
-0.0957669
-0.0953038
-0.0947929
-0.0942257
-0.0935907
-0.0928745
-0.0920548
-0.0911022
-0.0899724
-0.0886125
-0.0869581
-0.0849437
-0.0824974
-0.0795527
-0.076049
-0.071946
-0.0672221
-0.0618849
-0.0559677
-0.049537
-0.0426829
-0.0355217
-0.0281836
-0.020812
-0.0135498
-0.00653687
0.000101796
0.0062543
0.0118288
0.0167528
0.0209788
0.0244825
0.0272619
0.029335
0.030735
0.031509
0.0317105
0.0314005
0.0306387
0.0294882
0.0280048
0.0262456
0.0242562
0.0220836
0.0197608
0.0173238
0.0147931
0.0121948
0.00953897
0.00684551
0.00411792
0.00137687
-0.102114
-0.100734
-0.100106
-0.0996728
-0.0994462
-0.0993568
-0.0993449
-0.0993695
-0.0994085
-0.0994543
-0.0995037
-0.0995534
-0.0996011
-0.0996451
-0.0996832
-0.0997137
-0.0997347
-0.0997439
-0.0997382
-0.0997173
-0.0996805
-0.099627
-0.0995562
-0.099468
-0.0993609
-0.0992337
-0.0990845
-0.0989121
-0.0987201
-0.0985086
-0.0982769
-0.0980238
-0.0977477
-0.0974463
-0.0971164
-0.0967547
-0.0963584
-0.0959238
-0.0954447
-0.0949141
-0.0943227
-0.0936601
-0.0929119
-0.0920608
-0.0910828
-0.0899469
-0.0886121
-0.0870296
-0.0851429
-0.0828946
-0.0802267
-0.0770887
-0.0734395
-0.0692552
-0.0645301
-0.0592847
-0.0535623
-0.0474342
-0.0409904
-0.0343435
-0.0276144
-0.0209338
-0.0144265
-0.00821371
-0.00239517
0.00294186
0.00773214
0.0119239
0.0154916
0.0184237
0.0207323
0.0224386
0.0235822
0.0242048
0.0243604
0.0240992
0.0234792
0.0225496
0.0213642
0.0199652
0.0183978
0.0166936
0.0148879
0.0130018
0.0110614
0.00907851
0.00707213
0.00504736
0.00301787
0.000985757
-0.0962741
-0.0973598
-0.0981968
-0.0988086
-0.0991254
-0.0992442
-0.0992788
-0.0992927
-0.0993085
-0.0993388
-0.0993778
-0.0994184
-0.0994588
-0.0994974
-0.099532
-0.0995606
-0.099582
-0.099596
-0.099599
-0.0995843
-0.0995499
-0.0994955
-0.0994206
-0.0993244
-0.0992073
-0.0990672
-0.0989015
-0.0987091
-0.0984902
-0.0982446
-0.0979711
-0.0976681
-0.0973331
-0.0969633
-0.0965547
-0.0961026
-0.0956022
-0.0950478
-0.0944327
-0.0937484
-0.0929847
-0.0921289
-0.0911656
-0.0900765
-0.0888391
-0.0874247
-0.0857983
-0.0839199
-0.0817455
-0.0792311
-0.0763346
-0.0730213
-0.0692652
-0.0650591
-0.0604137
-0.0553622
-0.0499557
-0.044267
-0.0383819
-0.0324023
-0.0264324
-0.020582
-0.0149503
-0.00963262
-0.00470478
-0.000232079
0.00374561
0.0071972
0.0101159
0.0125
0.0143704
0.0157481
0.0166737
0.0171816
0.0173229
0.0171363
0.0166762
0.0159787
0.0150955
0.0140548
0.0129013
0.0116522
0.0103451
0.00898654
0.00760807
0.0062069
0.00481106
0.0034103
0.00203023
0.000652606
-0.118942
-0.104029
-0.102103
-0.100626
-0.0997115
-0.0992829
-0.0991082
-0.0990464
-0.0990283
-0.0990324
-0.0990717
-0.0991337
-0.0991985
-0.0992593
-0.0993143
-0.0993617
-0.0993989
-0.0994221
-0.0994267
-0.0994074
-0.099361
-0.099286
-0.0991818
-0.099049
-0.0988877
-0.0986953
-0.0984686
-0.098205
-0.0979026
-0.0975601
-0.0971759
-0.0967483
-0.0962747
-0.095752
-0.095176
-0.0945418
-0.0938441
-0.0930768
-0.092233
-0.0913046
-0.0902815
-0.089152
-0.0879013
-0.0865112
-0.08496
-0.0832238
-0.0812759
-0.0790878
-0.0766296
-0.0738731
-0.0707939
-0.0673754
-0.0636107
-0.0595073
-0.0550866
-0.0503865
-0.0454574
-0.0403642
-0.0351806
-0.0299904
-0.0248773
-0.0199269
-0.0152138
-0.010808
-0.00676263
-0.00312392
8.72071e-05
0.00285532
0.00518506
0.00707987
0.00856379
0.0096558
0.0103954
0.0108103
0.0109477
0.0108368
0.010528
0.0100467
0.00944206
0.00873055
0.00795646
0.00712414
0.00627324
0.00539561
0.00452866
0.00365269
0.00280656
0.00196041
0.00115671
0.000351482
-0.0865157
-0.0929654
-0.0954728
-0.0963177
-0.0967674
-0.0971713
-0.0975451
-0.0978596
-0.0981317
-0.0983687
-0.098573
-0.098747
-0.0988939
-0.0990177
-0.0991206
-0.0992022
-0.0992592
-0.099287
-0.0992806
-0.0992355
-0.0991483
-0.0990169
-0.0988405
-0.0986192
-0.0983524
-0.0980388
-0.0976764
-0.0972634
-0.096798
-0.0962792
-0.0957053
-0.0950737
-0.0943809
-0.0936238
-0.0927987
-0.0919017
-0.0909282
-0.0898728
-0.0887295
-0.0874911
-0.0861493
-0.0846944
-0.083115
-0.0813976
-0.0795276
-0.0774891
-0.0752656
-0.0728399
-0.0701953
-0.0673178
-0.0641969
-0.0608291
-0.0572184
-0.0533788
-0.049334
-0.0451189
-0.0407769
-0.0363604
-0.0319285
-0.0275465
-0.0232798
-0.0191935
-0.0153442
-0.0117828
-0.00854438
-0.00565606
-0.00312679
-0.00096186
0.000848727
0.00231248
0.0034537
0.00429139
0.00486293
0.00519312
0.0053252
0.00528246
0.00510976
0.00482467
0.00447138
0.0040576
0.00362524
0.0031684
0.00272713
0.00227967
0.00186794
0.00145388
0.00108783
0.000714716
0.000398263
6.06405e-05
-0.0806121
-0.0883857
-0.0923658
-0.0937899
-0.0942254
-0.094565
-0.0950662
-0.0956859
-0.0963107
-0.0968664
-0.0973292
-0.0977074
-0.0980189
-0.0982785
-0.0984933
-0.0986636
-0.0987855
-0.0988528
-0.0988596
-0.0988009
-0.0986733
-0.0984751
-0.0982058
-0.0978659
-0.0974563
-0.0969776
-0.0964303
-0.0958146
-0.0951307
-0.0943785
-0.0935574
-0.0926666
-0.0917044
-0.0906691
-0.0895585
-0.08837
-0.0871003
-0.0857457
-0.0843018
-0.0827637
-0.0811258
-0.0793818
-0.0775247
-0.0755469
-0.0734403
-0.0711962
-0.0688058
-0.0662605
-0.0635522
-0.0606755
-0.0576286
-0.0544143
-0.0510413
-0.0475252
-0.0438892
-0.0401649
-0.036391
-0.0326128
-0.028878
-0.0252357
-0.0217341
-0.0184203
-0.0153345
-0.0125108
-0.00997209
-0.0077341
-0.00580006
-0.00416636
-0.00281652
-0.00173532
-0.000898132
-0.000284007
0.000140577
0.000401029
0.000535893
0.000567257
0.000531422
0.000440429
0.000327456
0.00019422
7.40777e-05
-4.40606e-05
-0.000125641
-0.000199721
-0.00022582
-0.000254922
-0.000229685
-0.000228426
-0.000165249
-0.000159144
-0.0704302
-0.0776136
-0.082957
-0.0864505
-0.0886005
-0.0900632
-0.0912869
-0.0924509
-0.0935679
-0.0945925
-0.0954869
-0.0962409
-0.0968651
-0.0973763
-0.0977883
-0.0981077
-0.0983352
-0.098468
-0.0985023
-0.0984351
-0.0982649
-0.0979918
-0.0976174
-0.0971442
-0.0965755
-0.0959149
-0.0951655
-0.0943306
-0.0934126
-0.0924139
-0.0913362
-0.0901804
-0.0889471
-0.087636
-0.0862462
-0.0847764
-0.0832247
-0.0815889
-0.0798666
-0.078055
-0.0761512
-0.0741523
-0.0720552
-0.0698573
-0.0675558
-0.0651483
-0.0626329
-0.0600083
-0.0572745
-0.0544328
-0.0514868
-0.0484425
-0.04531
-0.042104
-0.0388456
-0.0355631
-0.0322918
-0.0290722
-0.0259462
-0.0229536
-0.0201292
-0.0175007
-0.0150888
-0.0129094
-0.0109749
-0.00929606
-0.00787459
-0.00669969
-0.0057451
-0.00498226
-0.00438271
-0.00392491
-0.00358405
-0.00333729
-0.00315307
-0.00300931
-0.00288092
-0.00276107
-0.00263424
-0.00250374
-0.00235245
-0.00219066
-0.00199639
-0.00179321
-0.0015501
-0.00131134
-0.0010258
-0.000774895
-0.000465767
-0.000248327
-0.0652354
-0.0718608
-0.0773384
-0.0815641
-0.0846615
-0.0869406
-0.088742
-0.0903043
-0.0917356
-0.0930533
-0.0942375
-0.0952676
-0.0961371
-0.0968518
-0.0974218
-0.0978556
-0.0981569
-0.098326
-0.0983613
-0.0982614
-0.0980264
-0.0976583
-0.0971608
-0.096539
-0.0957985
-0.0949456
-0.0939863
-0.0929262
-0.0917705
-0.090524
-0.0891906
-0.0877734
-0.0862743
-0.0846945
-0.0830343
-0.0812936
-0.0794717
-0.077568
-0.0755819
-0.0735127
-0.0713604
-0.0691252
-0.0668081
-0.0644106
-0.061935
-0.0593847
-0.0567641
-0.0540785
-0.0513345
-0.048539
-0.0456996
-0.042825
-0.0399249
-0.0370121
-0.0341035
-0.0312225
-0.0284005
-0.0256757
-0.0230896
-0.0206795
-0.0184695
-0.0164664
-0.0146622
-0.0130463
-0.0116179
-0.0103879
-0.0093639
-0.00853443
-0.00786452
-0.00730814
-0.0068286
-0.00640986
-0.00604554
-0.0057282
-0.00544004
-0.00516222
-0.00487595
-0.00457416
-0.00425189
-0.00391616
-0.00356705
-0.00321451
-0.00285162
-0.00248926
-0.00211121
-0.00173941
-0.0013438
-0.000977388
-0.000572305
-0.00026022
-0.0607517
-0.0670322
-0.0725046
-0.0770739
-0.0807475
-0.0836588
-0.0860175
-0.0880231
-0.0898081
-0.0914308
-0.092899
-0.0941991
-0.0953178
-0.0962501
-0.0969981
-0.0975671
-0.097961
-0.0981819
-0.0982303
-0.0981067
-0.0978136
-0.0973556
-0.0967394
-0.095973
-0.0950651
-0.0940245
-0.0928597
-0.0915789
-0.0901901
-0.088701
-0.0871179
-0.0854461
-0.0836893
-0.08185
-0.0799298
-0.0779297
-0.0758503
-0.0736924
-0.0714571
-0.0691463
-0.0667626
-0.0643098
-0.0617925
-0.0592165
-0.0565888
-0.0539179
-0.0512142
-0.0484894
-0.0457566
-0.0430288
-0.0403177
-0.0376333
-0.0349848
-0.0323813
-0.0298335
-0.027355
-0.0249659
-0.0226986
-0.020596
-0.018698
-0.0170256
-0.0155637
-0.0142691
-0.0130987
-0.0120376
-0.0111
-0.0103046
-0.00965249
-0.00911309
-0.00863144
-0.0081603
-0.00768441
-0.00721325
-0.00676145
-0.00633553
-0.0059326
-0.00554322
-0.00515836
-0.0047686
-0.00437141
-0.00396509
-0.00355431
-0.00313795
-0.0027212
-0.00229813
-0.00187727
-0.00144772
-0.00103434
-0.000606994
-0.000251532
-0.0572001
-0.063282
-0.0687407
-0.0734987
-0.0775331
-0.0808976
-0.0837138
-0.0861269
-0.0882573
-0.0901765
-0.0919106
-0.0934571
-0.0948031
-0.0959377
-0.0968553
-0.0975553
-0.0980391
-0.0983078
-0.098363
-0.0982069
-0.0978443
-0.0972833
-0.0965349
-0.0956118
-0.0945264
-0.0932903
-0.0919144
-0.0904095
-0.0887863
-0.0870547
-0.0852237
-0.0833007
-0.0812915
-0.0792004
-0.0770304
-0.0747837
-0.0724623
-0.0700686
-0.0676056
-0.0650776
-0.0624903
-0.0598512
-0.0571692
-0.0544547
-0.051719
-0.0489746
-0.046236
-0.0435208
-0.0408491
-0.0382396
-0.0357061
-0.0332574
-0.0308983
-0.0286326
-0.0264635
-0.0243928
-0.0224204
-0.0205633
-0.0188584
-0.0173471
-0.016057
-0.0149652
-0.014007
-0.0131215
-0.0122824
-0.0114951
-0.0107675
-0.0101146
-0.0095444
-0.00903282
-0.00854621
-0.00807201
-0.00761058
-0.00715248
-0.00669473
-0.00623738
-0.00578033
-0.00532505
-0.00487434
-0.00443173
-0.0039976
-0.003571
-0.00314875
-0.00272993
-0.00230957
-0.0018884
-0.00146243
-0.00104149
-0.000619628
-0.000253694
-0.0543514
-0.060335
-0.0657915
-0.0706551
-0.0749055
-0.0785753
-0.0817412
-0.084502
-0.0869508
-0.0891536
-0.0911431
-0.0929243
-0.0944869
-0.0958166
-0.0969013
-0.0977338
-0.0983104
-0.0986301
-0.0986935
-0.0985041
-0.0980687
-0.0973986
-0.0965103
-0.0954234
-0.0941557
-0.0927221
-0.0911365
-0.0894123
-0.0875628
-0.0856007
-0.0835372
-0.0813823
-0.0791439
-0.0768281
-0.0744396
-0.0719823
-0.0694598
-0.0668762
-0.0642365
-0.0615474
-0.0588175
-0.056058
-0.0532826
-0.0505068
-0.0477465
-0.0450161
-0.0423294
-0.0397071
-0.0371732
-0.0347472
-0.0324394
-0.030252
-0.0281805
-0.0262203
-0.0243707
-0.0226313
-0.0210021
-0.0194808
-0.0180836
-0.0168337
-0.0157311
-0.0147596
-0.0138952
-0.0131106
-0.0123869
-0.0117207
-0.011122
-0.0105528
-0.00997057
-0.00936271
-0.00874848
-0.00815762
-0.00760363
-0.00709131
-0.00661887
-0.00617268
-0.00573861
-0.00530822
-0.00487797
-0.00444781
-0.00401875
-0.00359247
-0.00316898
-0.00274725
-0.002325
-0.00190164
-0.00147609
-0.00105317
-0.000640549
-0.000250366
-0.0520128
-0.057978
-0.0634443
-0.0683675
-0.0727479
-0.0766232
-0.0800537
-0.0831069
-0.0858464
-0.0883223
-0.0905636
-0.0925772
-0.0943544
-0.0958784
-0.0971319
-0.0981005
-0.0987748
-0.09915
-0.0992261
-0.0990072
-0.0985025
-0.0977268
-0.0967016
-0.0954539
-0.0940075
-0.0923841
-0.0906034
-0.0886836
-0.0866412
-0.0844913
-0.0822471
-0.0799196
-0.0775177
-0.0750485
-0.0725176
-0.0699299
-0.0672901
-0.0646035
-0.0618764
-0.0591168
-0.056335
-0.0535441
-0.0507605
-0.048003
-0.0452919
-0.0426433
-0.0400743
-0.0376074
-0.0352607
-0.0330426
-0.0309515
-0.0289791
-0.0271111
-0.0253337
-0.0236444
-0.0220586
-0.0206031
-0.0193053
-0.0181754
-0.0171969
-0.0163007
-0.0154007
-0.0144642
-0.0135075
-0.0125859
-0.0117639
-0.0110422
-0.0104105
-0.00983773
-0.0092816
-0.00873278
-0.00819286
-0.00766891
-0.00717121
-0.00669609
-0.00623609
-0.00578514
-0.00533989
-0.00489937
-0.00446377
-0.00403239
-0.00360452
-0.00317955
-0.00275662
-0.00233445
-0.00191204
-0.00148892
-0.00106971
-0.00066273
-0.00025009
-0.0505237
-0.0564597
-0.0618972
-0.0668281
-0.0712769
-0.0752848
-0.0789011
-0.0821741
-0.0851462
-0.0878517
-0.0903104
-0.0925265
-0.0944906
-0.0961843
-0.0975857
-0.0986748
-0.0994358
-0.0998594
-0.0999434
-0.0996939
-0.0991248
-0.0982566
-0.0971135
-0.0957209
-0.0941101
-0.0923132
-0.0903602
-0.088277
-0.0860856
-0.0838036
-0.0814452
-0.0790214
-0.0765404
-0.0740081
-0.0714296
-0.0688087
-0.0661493
-0.0634561
-0.0607345
-0.0579919
-0.0552377
-0.0524843
-0.0497475
-0.0470468
-0.0444058
-0.0418522
-0.0394159
-0.0371185
-0.0349717
-0.0329736
-0.0311067
-0.029342
-0.0276467
-0.0259819
-0.0243274
-0.022692
-0.0211111
-0.0196344
-0.0183127
-0.0171524
-0.016124
-0.0151876
-0.0143001
-0.0134497
-0.0126392
-0.011883
-0.011195
-0.0105623
-0.00996047
-0.00937379
-0.00879952
-0.00824336
-0.00771146
-0.00720477
-0.00672098
-0.00625502
-0.0058012
-0.00535522
-0.00491462
-0.0044784
-0.0040461
-0.00361724
-0.00319123
-0.00276746
-0.00234531
-0.00192414
-0.00150375
-0.00108743
-0.00067897
-0.00025261
-0.0496333
-0.05559
-0.0610316
-0.0659845
-0.0704888
-0.0745874
-0.0783243
-0.0817429
-0.0848799
-0.0877574
-0.0903831
-0.0927529
-0.0948529
-0.0966634
-0.0981622
-0.0993285
-0.100146
-0.100606
-0.100707
-0.100457
-0.0998723
-0.0989764
-0.0977989
-0.0963717
-0.094728
-0.0928998
-0.0909173
-0.0888072
-0.0865924
-0.0842918
-0.08192
-0.0794882
-0.0770049
-0.074476
-0.0719064
-0.0692996
-0.0666591
-0.0639888
-0.0612934
-0.0585788
-0.0558534
-0.0531275
-0.0504146
-0.0477313
-0.0450973
-0.0425345
-0.0400644
-0.037706
-0.0354717
-0.033365
-0.0313806
-0.0295094
-0.0277206
-0.025986
-0.0243036
-0.0226837
-0.0211544
-0.0197494
-0.0184886
-0.0173713
-0.0163586
-0.0154021
-0.0144749
-0.0135769
-0.0127268
-0.011945
-0.0112355
-0.0105854
-0.00997389
-0.00938496
-0.00881438
-0.00826401
-0.00773675
-0.00723305
-0.0067497
-0.00628189
-0.00582524
-0.0053767
-0.00493444
-0.00449734
-0.00406453
-0.00363527
-0.00320888
-0.00278481
-0.00236279
-0.0019428
-0.00152483
-0.00110938
-0.000695195
-0.000259751
)
;

boundaryField
{
    fixedWalls
    {
        type            zeroGradient;
    }
    inflowWall
    {
        type            zeroGradient;
    }
    outflowWall
    {
        type            fixedValue;
        value           uniform 0;
    }
    frontAndBack
    {
        type            empty;
    }
}


// ************************************************************************* //
