/*--------------------------------*- C++ -*----------------------------------*\
| =========                 |                                                 |
| \\      /  F ield         | OpenFOAM: The Open Source CFD Toolbox           |
|  \\    /   O peration     | Version:  2306                                  |
|   \\  /    A nd           | Website:  www.openfoam.com                      |
|    \\/     M anipulation  |                                                 |
\*---------------------------------------------------------------------------*/
FoamFile
{
    version     2.0;
    format      ascii;
    arch        "LSB;label=32;scalar=64";
    class       volScalarField;
    location    "4.4";
    object      p;
}
// * * * * * * * * * * * * * * * * * * * * * * * * * * * * * * * * * * * * * //

dimensions      [0 2 -2 0 0 0 0];

internalField   nonuniform List<scalar> 
1900
(
0.0562863
0.0320644
0.0116717
-0.00366993
-0.0146913
-0.0252489
-0.0356933
-0.0478619
-0.0604217
-0.0744831
0.0270254
0.0188268
0.0075104
-0.00404317
-0.0150691
-0.0252588
-0.0356944
-0.0462108
-0.0577109
-0.0687674
0.0179325
0.0134418
0.00592605
-0.00344241
-0.0135264
-0.0235058
-0.0332853
-0.042838
-0.0522652
-0.0613509
0.0122313
0.00915798
0.00350818
-0.00414014
-0.0129916
-0.0222317
-0.0314226
-0.0403362
-0.0489288
-0.057088
0.010007
0.0074717
0.00273311
-0.0039148
-0.0118933
-0.0204963
-0.0291705
-0.0375931
-0.0456145
-0.0531457
0.0106411
0.00816042
0.00354979
-0.00291507
-0.0106533
-0.0189565
-0.0272657
-0.0352638
-0.0428265
-0.0499251
0.0140965
0.0111506
0.00586964
-0.00121317
-0.00927292
-0.0175591
-0.025606
-0.0332362
-0.0404416
-0.047257
0.0207954
0.0165001
0.00960259
0.00113417
-0.00768513
-0.0161086
-0.0239405
-0.0312745
-0.0382601
-0.0449592
0.0309362
0.0228372
0.0124016
0.00194133
-0.00736467
-0.015475
-0.022842
-0.0298883
-0.0367775
-0.0434693
0.0597863
0.0371142
0.0174078
0.00334594
-0.00631022
-0.0140037
-0.0212307
-0.0284461
-0.0356
-0.0424867
-0.0976903
-0.0977238
-0.0977687
-0.0978228
-0.0978831
-0.0979493
-0.0980208
-0.0980966
-0.0981754
-0.0982556
-0.0983355
-0.0984136
-0.0984879
-0.098557
-0.0986189
-0.0986723
-0.0987155
-0.0987471
-0.0987658
-0.0987705
-0.0987601
-0.0987338
-0.0986909
-0.0986308
-0.0985532
-0.0984576
-0.0983438
-0.0982117
-0.0980611
-0.0978919
-0.0977039
-0.097497
-0.0972711
-0.097026
-0.0967613
-0.0964765
-0.0961699
-0.0958385
-0.0954768
-0.0950754
-0.0946205
-0.094092
-0.093464
-0.0927044
-0.0917763
-0.0906389
-0.0892483
-0.0875557
-0.0855054
-0.0830342
-0.0800729
-0.0765487
-0.0723907
-0.0675396
-0.0619607
-0.0556476
-0.0486378
-0.0409968
-0.0328169
-0.0242238
-0.0153687
-0.00642434
0.00243634
0.0110366
0.0192085
0.0268022
0.0336847
0.0397575
0.0449425
0.0492025
0.052514
0.0548933
0.0563619
0.0569774
0.0567914
0.0558863
0.0543252
0.0521987
0.0495669
0.046518
0.0430984
0.0393866
0.035407
0.0312277
0.0268457
0.0223244
0.0176242
0.0128193
0.00780626
0.00272222
-0.0976858
-0.0977175
-0.0977445
-0.0977861
-0.0978373
-0.0978968
-0.0979631
-0.0980344
-0.0981093
-0.0981861
-0.0982632
-0.0983389
-0.0984113
-0.0984788
-0.0985395
-0.098592
-0.0986345
-0.0986656
-0.0986839
-0.0986883
-0.0986776
-0.0986509
-0.0986074
-0.0985465
-0.0984676
-0.0983704
-0.0982544
-0.0981194
-0.0979652
-0.0977916
-0.0975981
-0.0973846
-0.0971503
-0.0968947
-0.0966168
-0.0963155
-0.0959888
-0.0956335
-0.0952446
-0.0948143
-0.0943314
-0.0937808
-0.0931426
-0.0923914
-0.0914965
-0.0904213
-0.089123
-0.0875514
-0.0856451
-0.0833291
-0.0805185
-0.0771258
-0.0730715
-0.068309
-0.0628312
-0.0566231
-0.0496931
-0.0420997
-0.0339423
-0.0253534
-0.0164847
-0.00751508
0.00137845
0.0100142
0.0182165
0.0258452
0.032754
0.038848
0.0440491
0.0483259
0.0516514
0.0540449
0.0555252
0.0561554
0.0559827
0.0550964
0.0535542
0.0514561
0.0488524
0.0458419
0.0424571
0.0387919
0.0348533
0.0307294
0.0263953
0.0219356
0.0172862
0.0125422
0.00760731
0.00261878
-0.0975683
-0.0976495
-0.0976951
-0.0977486
-0.0978048
-0.0978663
-0.0979342
-0.0980074
-0.0980846
-0.0981641
-0.0982442
-0.0983231
-0.0983989
-0.0984698
-0.098534
-0.0985898
-0.0986356
-0.0986697
-0.0986907
-0.0986973
-0.0986883
-0.0986629
-0.0986201
-0.0985594
-0.0984802
-0.0983822
-0.0982651
-0.0981289
-0.0979734
-0.0977987
-0.0976045
-0.0973906
-0.0971564
-0.0969008
-0.0966228
-0.0963208
-0.0959925
-0.0956346
-0.0952422
-0.0948091
-0.0943271
-0.0937865
-0.0931737
-0.092471
-0.0916537
-0.0906871
-0.0895251
-0.0881107
-0.0863719
-0.0842187
-0.0815566
-0.0783163
-0.0744091
-0.0697541
-0.064308
-0.0580883
-0.051131
-0.0435108
-0.0353261
-0.0267111
-0.0178123
-0.00883996
4.19599e-05
0.00866498
0.0168501
0.0244558
0.031338
0.037406
0.0425776
0.0468246
0.0501206
0.0524902
0.0539515
0.0545731
0.0544004
0.0535278
0.0520093
0.0499491
0.0473938
0.0444463
0.0411356
0.0375583
0.0337193
0.0297067
0.0254974
0.0211727
0.0166806
0.0121036
0.00736709
0.00256568
-0.0976503
-0.097724
-0.0977283
-0.0977542
-0.0977999
-0.0978621
-0.0979355
-0.0980162
-0.0981017
-0.0981898
-0.0982783
-0.0983651
-0.0984483
-0.0985259
-0.098596
-0.0986569
-0.0987068
-0.0987442
-0.0987677
-0.0987759
-0.0987677
-0.0987422
-0.0986987
-0.0986364
-0.0985549
-0.098454
-0.0983335
-0.0981934
-0.098034
-0.0978554
-0.0976577
-0.0974407
-0.0972037
-0.0969456
-0.0966646
-0.0963595
-0.0960281
-0.0956682
-0.0952766
-0.0948487
-0.0943783
-0.0938579
-0.0932801
-0.0926318
-0.0918899
-0.0910176
-0.0899616
-0.0886609
-0.0870417
-0.0850083
-0.0824505
-0.0792718
-0.0754062
-0.0707871
-0.0653815
-0.0591997
-0.0522783
-0.044698
-0.0365648
-0.0280163
-0.0192141
-0.0103431
-0.00158406
0.00689556
0.0149232
0.0223596
0.0290714
0.0349722
0.0399858
0.0440869
0.0472551
0.0495189
0.0509011
0.0514718
0.0512799
0.0504185
0.0489439
0.0469564
0.0445053
0.0416877
0.038536
0.0351384
0.031506
0.0277161
0.0237565
0.0196957
0.0154986
0.0112285
0.00682865
0.00236261
-0.0973239
-0.0975293
-0.0976202
-0.0977244
-0.0978232
-0.0979165
-0.0980092
-0.0981045
-0.0982021
-0.0983004
-0.0983976
-0.0984917
-0.0985808
-0.0986631
-0.0987366
-0.0987998
-0.0988509
-0.0988886
-0.0989112
-0.0989174
-0.0989063
-0.098877
-0.0988288
-0.0987613
-0.0986743
-0.0985674
-0.0984408
-0.098295
-0.0981303
-0.0979474
-0.0977463
-0.0975272
-0.0972893
-0.0970307
-0.0967493
-0.0964441
-0.0961137
-0.095756
-0.0953687
-0.0949485
-0.0944898
-0.0939853
-0.0934331
-0.09282
-0.0921206
-0.091297
-0.0902864
-0.0890192
-0.0874123
-0.0853827
-0.0828262
-0.0796546
-0.0757905
-0.0711817
-0.065802
-0.0596663
-0.0528202
-0.0453479
-0.0373618
-0.0290026
-0.0204316
-0.0118238
-0.00335855
0.00479916
0.0124895
0.0195797
0.0259509
0.0315233
0.0362332
0.0400601
0.0429945
0.0450678
0.0463113
0.0467936
0.0465691
0.0457257
0.0443235
0.0424541
0.0401707
0.037559
0.034657
0.0315392
0.0282248
0.0247764
0.0211938
0.017529
0.0137636
0.00994236
0.00603112
0.00207588
-0.0981557
-0.0981783
-0.0980772
-0.0980323
-0.098043
-0.098101
-0.098189
-0.09829
-0.0983931
-0.0984951
-0.0985937
-0.0986873
-0.0987741
-0.0988527
-0.0989215
-0.0989789
-0.0990237
-0.0990546
-0.0990699
-0.0990686
-0.0990496
-0.0990124
-0.0989564
-0.0988814
-0.0987873
-0.0986738
-0.098541
-0.0983897
-0.0982206
-0.0980341
-0.0978306
-0.0976101
-0.0973715
-0.0971127
-0.09683
-0.0965277
-0.0962019
-0.0958497
-0.0954686
-0.0950556
-0.0946059
-0.0941097
-0.0935518
-0.0929234
-0.092199
-0.0913373
-0.0902787
-0.0889547
-0.0872831
-0.0851788
-0.0825485
-0.0793104
-0.0753972
-0.0707693
-0.0654113
-0.0593452
-0.0526249
-0.0453401
-0.0376076
-0.0295695
-0.0213832
-0.0132154
-0.00523261
0.00240967
0.00956898
0.016125
0.0219773
0.027057
0.0313178
0.0347468
0.0373484
0.0391569
0.0402135
0.0405835
0.040327
0.0395229
0.0382346
0.0365415
0.0344992
0.0321788
0.0296222
0.0268883
0.0240027
0.021012
0.0179255
0.0147791
0.0115682
0.00832196
0.00502541
0.00170818
-0.0968288
-0.0974756
-0.0976786
-0.0979352
-0.0981508
-0.098314
-0.0984364
-0.0985375
-0.0986304
-0.0987188
-0.0988029
-0.0988815
-0.0989534
-0.0990172
-0.0990718
-0.0991157
-0.0991481
-0.0991676
-0.0991726
-0.0991617
-0.099134
-0.0990887
-0.0990255
-0.0989439
-0.0988437
-0.0987244
-0.0985866
-0.0984319
-0.0982606
-0.0980727
-0.0978684
-0.0976477
-0.0974096
-0.097152
-0.0968698
-0.0965579
-0.0962199
-0.0958535
-0.0954539
-0.0950158
-0.0945319
-0.0939928
-0.0933846
-0.0926893
-0.0918772
-0.0909064
-0.089719
-0.088248
-0.0864165
-0.0841468
-0.0813605
-0.0779909
-0.0739855
-0.0693182
-0.0639876
-0.0580264
-0.051497
-0.0444948
-0.0371381
-0.0295667
-0.02193
-0.0143835
-0.00707489
-0.000141284
0.00629881
0.0121444
0.0173183
0.0217677
0.0254657
0.02841
0.0306186
0.0321281
0.0329869
0.0332549
0.0329942
0.0322728
0.0311536
0.0297014
0.0279713
0.0260189
0.0238866
0.0216179
0.0192419
0.01679
0.0142784
0.0117288
0.00914672
0.00654756
0.00393096
0.00131295
-0.101542
-0.100162
-0.0995338
-0.0991005
-0.098874
-0.0987848
-0.098773
-0.0987976
-0.0988365
-0.0988823
-0.0989318
-0.0989816
-0.0990296
-0.0990741
-0.099113
-0.0991443
-0.0991667
-0.0991772
-0.0991734
-0.0991548
-0.099121
-0.0990711
-0.099005
-0.098922
-0.098821
-0.0987008
-0.0985596
-0.0983976
-0.0982175
-0.0980194
-0.0978023
-0.0975648
-0.0973047
-0.0970194
-0.0967052
-0.0963591
-0.0959786
-0.0955598
-0.0950968
-0.0945822
-0.0940064
-0.0933573
-0.0926176
-0.0917649
-0.0907678
-0.0895856
-0.0881655
-0.0864475
-0.0843651
-0.0818535
-0.0788519
-0.0753129
-0.0712036
-0.0665143
-0.0612586
-0.0554802
-0.0492477
-0.0426575
-0.0358236
-0.028878
-0.021956
-0.0151955
-0.00872279
-0.00265123
0.00293001
0.00794501
0.0123427
0.0160894
0.0191774
0.0216137
0.0234261
0.0246509
0.0253382
0.0255398
0.0253153
0.0247201
0.0238133
0.0226454
0.0212682
0.0197222
0.0180489
0.0162771
0.0144376
0.0125485
0.010631
0.0086941
0.00675198
0.00480706
0.0028688
0.000936949
-0.0956996
-0.096787
-0.0976246
-0.0982366
-0.0985535
-0.0986722
-0.0987068
-0.0987204
-0.0987363
-0.0987665
-0.0988058
-0.0988466
-0.0988873
-0.0989263
-0.0989616
-0.0989912
-0.0990141
-0.09903
-0.0990343
-0.0990211
-0.0989889
-0.0989371
-0.0988656
-0.0987744
-0.0986628
-0.0985284
-0.0983689
-0.0981839
-0.0979735
-0.0977374
-0.0974741
-0.0971814
-0.0968565
-0.0964959
-0.0960954
-0.09565
-0.0951549
-0.0946044
-0.0939915
-0.0933071
-0.0925399
-0.0916752
-0.0906948
-0.0895765
-0.0882909
-0.0868021
-0.0850664
-0.0830359
-0.0806598
-0.0778901
-0.0746839
-0.0710094
-0.0668517
-0.0622186
-0.0571387
-0.0516649
-0.0458691
-0.0398437
-0.0336925
-0.0275307
-0.0214711
-0.0156257
-0.0100916
-0.00495736
-0.000287512
0.00386684
0.0074794
0.0105339
0.0130367
0.0150001
0.0164564
0.0174376
0.0179917
0.0181602
0.0179978
0.0175474
0.0168637
0.015984
0.0149568
0.0138091
0.0125809
0.0112877
0.00996196
0.00860861
0.00725417
0.00589464
0.00455306
0.00321847
0.00191194
0.000615207
-0.118376
-0.103457
-0.101531
-0.100054
-0.0991395
-0.098711
-0.0985364
-0.0984744
-0.0984556
-0.0984592
-0.0984979
-0.09856
-0.098625
-0.0986856
-0.0987404
-0.0987877
-0.0988247
-0.0988478
-0.098852
-0.0988322
-0.0987853
-0.0987103
-0.0986075
-0.0984776
-0.0983189
-0.0981284
-0.0979029
-0.0976402
-0.0973388
-0.0969971
-0.0966133
-0.0961854
-0.0957105
-0.0951848
-0.0946036
-0.093962
-0.0932544
-0.0924746
-0.0916155
-0.090668
-0.0896212
-0.0884611
-0.08717
-0.0857252
-0.0841011
-0.082269
-0.080197
-0.0778518
-0.0752002
-0.0722129
-0.0688673
-0.0651523
-0.0610702
-0.0566411
-0.0519003
-0.0469004
-0.0417067
-0.0363983
-0.0310614
-0.0257886
-0.0206679
-0.0157845
-0.0112087
-0.00700409
-0.00321473
0.000128199
0.00301573
0.00544275
0.00742268
0.00896906
0.0101145
0.0108865
0.0113296
0.0114765
0.0113769
0.0110632
0.0105856
0.00997062
0.00926381
0.00848052
0.00765967
0.0068042
0.00594805
0.00508253
0.00423978
0.0034009
0.00259961
0.00180777
0.00106253
0.000322467
-0.085936
-0.0923915
-0.0948992
-0.0957426
-0.0961904
-0.0965925
-0.0969644
-0.0972769
-0.0975473
-0.0977828
-0.0979855
-0.0981579
-0.098303
-0.0984246
-0.098525
-0.0986038
-0.0986578
-0.0986823
-0.0986722
-0.098623
-0.0985314
-0.0983957
-0.0982154
-0.09799
-0.0977186
-0.0973992
-0.0970298
-0.0966085
-0.096134
-0.095605
-0.0950194
-0.0943739
-0.0936649
-0.0928891
-0.0920428
-0.0911218
-0.0901213
-0.0890358
-0.0878589
-0.0865829
-0.0851987
-0.0836948
-0.082058
-0.0802723
-0.0783205
-0.076184
-0.0738432
-0.0712788
-0.0684729
-0.0654119
-0.0620884
-0.0585035
-0.0546682
-0.0506053
-0.0463486
-0.0419431
-0.0374418
-0.0329076
-0.0284084
-0.0240156
-0.0197974
-0.0158178
-0.0121291
-0.0087737
-0.00577681
-0.00315455
-0.000907025
0.000967873
0.00248617
0.00366298
0.0045298
0.00511262
0.00545257
0.00557791
0.00553267
0.00534216
0.00505018
0.00467487
0.00425702
0.00380333
0.00335004
0.00288972
0.00245592
0.00202691
0.00163894
0.00125705
0.000926338
0.00059672
0.000325242
4.10254e-05
-0.080009
-0.0877848
-0.0917664
-0.0931912
-0.0936263
-0.0939643
-0.0944632
-0.0950801
-0.0957013
-0.0962524
-0.0967102
-0.0970832
-0.0973894
-0.0976434
-0.0978523
-0.0980162
-0.098131
-0.0981906
-0.0981889
-0.098121
-0.0979834
-0.0977743
-0.0974934
-0.0971408
-0.0967173
-0.0962231
-0.0956586
-0.095024
-0.0943192
-0.0935442
-0.0926983
-0.0917801
-0.0907882
-0.0897207
-0.0885753
-0.0873495
-0.08604
-0.0846429
-0.0831539
-0.0815677
-0.0798783
-0.0780787
-0.0761609
-0.0741161
-0.0719346
-0.0696061
-0.0671202
-0.0644666
-0.0616374
-0.0586284
-0.0554399
-0.0520785
-0.0485582
-0.0449012
-0.0411386
-0.0373103
-0.033463
-0.0296472
-0.0259143
-0.0223165
-0.0189039
-0.0157219
-0.0128068
-0.0101859
-0.00787479
-0.00588078
-0.00419757
-0.00281263
-0.00170526
-0.000856193
-0.000236188
0.000181063
0.000432988
0.000548022
0.000564299
0.000502848
0.000396556
0.000256289
0.000112323
-3.41006e-05
-0.000154344
-0.000261115
-0.000326364
-0.000379043
-0.000384786
-0.000389331
-0.000340731
-0.00030826
-0.000214907
-0.000165823
-0.0698128
-0.0770007
-0.0823442
-0.0858344
-0.0879795
-0.0894371
-0.0906555
-0.0918137
-0.0929243
-0.0939418
-0.0948285
-0.0955745
-0.0961901
-0.0966924
-0.0970948
-0.0974038
-0.09762
-0.0977405
-0.0977614
-0.0976795
-0.0974933
-0.0972027
-0.096809
-0.0963149
-0.0957235
-0.095038
-0.0942616
-0.0933973
-0.0924478
-0.0914151
-0.090301
-0.0891066
-0.0878322
-0.0864776
-0.0850421
-0.0835244
-0.0819229
-0.0802355
-0.0784599
-0.0765934
-0.0746333
-0.0725763
-0.0704194
-0.0681594
-0.0657932
-0.0633177
-0.0607305
-0.0580302
-0.0552166
-0.0522913
-0.049259
-0.0461282
-0.0429122
-0.0396314
-0.0363137
-0.0329952
-0.0297181
-0.0265268
-0.0234641
-0.0205682
-0.0178697
-0.0153916
-0.0131515
-0.0111644
-0.00944228
-0.00798986
-0.00679535
-0.00583231
-0.00506799
-0.00447517
-0.00402884
-0.00370751
-0.00348189
-0.00332365
-0.0032012
-0.00309711
-0.00299402
-0.0028899
-0.00277204
-0.00264331
-0.00248821
-0.00231707
-0.0021119
-0.00189539
-0.00164059
-0.00138748
-0.00109089
-0.000821381
-0.000496809
-0.000245875
-0.0646016
-0.0712254
-0.0767006
-0.0809225
-0.0840146
-0.0862873
-0.0880815
-0.0896359
-0.0910584
-0.0923667
-0.0935406
-0.0945596
-0.0954173
-0.0961193
-0.0966759
-0.0970952
-0.0973809
-0.097533
-0.0975498
-0.0974298
-0.0971729
-0.0967809
-0.0962573
-0.095607
-0.0948355
-0.093949
-0.0929533
-0.091854
-0.0906566
-0.0893657
-0.0879854
-0.0865187
-0.0849679
-0.0833342
-0.0816181
-0.0798198
-0.0779389
-0.0759754
-0.0739289
-0.0717994
-0.0695874
-0.0672935
-0.0649192
-0.0624663
-0.0599377
-0.0573371
-0.0546693
-0.0519398
-0.0491548
-0.0463212
-0.0434465
-0.0405398
-0.0376127
-0.0346813
-0.0317681
-0.0289046
-0.0261309
-0.0234916
-0.0210281
-0.0187689
-0.016723
-0.0148826
-0.0132353
-0.0117802
-0.010531
-0.00949955
-0.00867456
-0.00801786
-0.00747705
-0.0070135
-0.0066114
-0.0062679
-0.00597393
-0.00571134
-0.00545543
-0.0051889
-0.00490051
-0.00459187
-0.00426521
-0.00393019
-0.00358631
-0.00324039
-0.00288421
-0.00252634
-0.00215204
-0.00178059
-0.0013856
-0.00101168
-0.000600088
-0.000258847
-0.0601036
-0.0663806
-0.0718489
-0.0764129
-0.0800798
-0.0829827
-0.0853318
-0.0873267
-0.0891001
-0.0907104
-0.0921652
-0.0934512
-0.0945547
-0.0954708
-0.0962015
-0.096752
-0.0971259
-0.0973252
-0.0973501
-0.0972011
-0.0968804
-0.0963925
-0.0957437
-0.0949418
-0.0939952
-0.0929125
-0.0917021
-0.0903726
-0.0889322
-0.0873886
-0.0857484
-0.084017
-0.0821983
-0.0802951
-0.0783092
-0.0762422
-0.0740952
-0.0718698
-0.0695679
-0.0671924
-0.0647471
-0.0622365
-0.0596663
-0.0570435
-0.0543762
-0.0516741
-0.0489487
-0.0462125
-0.0434787
-0.0407592
-0.0380642
-0.0354027
-0.032783
-0.0302147
-0.0277103
-0.0252891
-0.0229834
-0.0208393
-0.0189032
-0.0172025
-0.015725
-0.0144239
-0.013249
-0.0121824
-0.0112417
-0.0104519
-0.00981701
-0.00930223
-0.00884411
-0.00839032
-0.00792656
-0.00746766
-0.00703132
-0.00662427
-0.00624032
-0.00586946
-0.00550003
-0.00512415
-0.00473747
-0.00434255
-0.00394083
-0.00353703
-0.00312924
-0.00272112
-0.00230691
-0.00189363
-0.00147096
-0.00105875
-0.000629747
-0.00025169
-0.0565401
-0.0626168
-0.0680692
-0.0728196
-0.0768448
-0.0801987
-0.0830028
-0.0854026
-0.0875185
-0.0894224
-0.0911401
-0.0926694
-0.0939972
-0.0951123
-0.0960091
-0.0966868
-0.0971465
-0.0973893
-0.0974162
-0.0972294
-0.0968337
-0.0962369
-0.09545
-0.094485
-0.0933539
-0.0920678
-0.0906378
-0.0890753
-0.0873911
-0.0855955
-0.0836978
-0.0817057
-0.0796253
-0.0774612
-0.0752168
-0.0728952
-0.070499
-0.0680318
-0.0654979
-0.0629031
-0.0602548
-0.0575621
-0.0548358
-0.0520874
-0.0493296
-0.0465763
-0.0438442
-0.0411532
-0.0385235
-0.0359707
-0.0335048
-0.0311306
-0.0288512
-0.0266686
-0.0245837
-0.0225952
-0.0207158
-0.0189842
-0.0174487
-0.0161466
-0.0150592
-0.0141155
-0.0132452
-0.0124173
-0.0116386
-0.0109203
-0.0102817
-0.00973177
-0.00924199
-0.00877527
-0.00831979
-0.00787683
-0.00743625
-0.00699413
-0.00654987
-0.00610396
-0.00565858
-0.00521836
-0.00478672
-0.0043648
-0.0039497
-0.0035406
-0.00313395
-0.00272781
-0.00231778
-0.00190488
-0.0014854
-0.00106649
-0.00064244
-0.000255355
-0.0536806
-0.059657
-0.065105
-0.0699586
-0.0741975
-0.0778542
-0.0810057
-0.0837506
-0.0861822
-0.0883668
-0.090337
-0.092098
-0.0936395
-0.0949468
-0.0960077
-0.0968146
-0.0973637
-0.0976535
-0.0976845
-0.0974595
-0.0969854
-0.0962736
-0.0953412
-0.0942067
-0.0928867
-0.0913961
-0.0897489
-0.0879592
-0.0860407
-0.0840065
-0.0818685
-0.079637
-0.0773202
-0.0749249
-0.0724564
-0.0699194
-0.0673187
-0.0646597
-0.061949
-0.0591954
-0.0564099
-0.0536064
-0.0508013
-0.0480117
-0.0452539
-0.0425414
-0.0398918
-0.0373295
-0.0348771
-0.0325479
-0.0303452
-0.0282641
-0.0262976
-0.0244438
-0.022701
-0.0210698
-0.019546
-0.0181418
-0.0168856
-0.0157843
-0.0148224
-0.0139733
-0.0132071
-0.0125043
-0.0118627
-0.0112937
-0.0107516
-0.0101866
-0.00958611
-0.00897658
-0.0083935
-0.00785279
-0.00735828
-0.00690533
-0.00647701
-0.00605825
-0.00564088
-0.0052224
-0.00480312
-0.00438501
-0.00397012
-0.00355847
-0.00314836
-0.00273835
-0.00232632
-0.0019114
-0.00149203
-0.00107194
-0.000656658
-0.000252008
-0.0513324
-0.0572887
-0.0627443
-0.0676552
-0.0720217
-0.0758815
-0.0792951
-0.0823299
-0.0850497
-0.0875046
-0.0897238
-0.0917145
-0.0934678
-0.094967
-0.0961942
-0.0971349
-0.0977792
-0.0981218
-0.0981623
-0.0979046
-0.0973573
-0.0965354
-0.0954613
-0.0941605
-0.0926567
-0.0909713
-0.0891242
-0.0871341
-0.0850181
-0.0827919
-0.0804693
-0.0780618
-0.075579
-0.0730285
-0.0704169
-0.06775
-0.0650339
-0.0622751
-0.0594819
-0.0566646
-0.053836
-0.0510126
-0.0482139
-0.0454622
-0.0427779
-0.0401753
-0.0376768
-0.0353027
-0.0330648
-0.0309626
-0.0289872
-0.0271221
-0.0253485
-0.0236598
-0.0220708
-0.0206109
-0.0193143
-0.0181978
-0.0172417
-0.0163812
-0.0155118
-0.0145916
-0.0136381
-0.0127158
-0.011901
-0.0111954
-0.0105856
-0.010033
-0.00949388
-0.00895928
-0.00843327
-0.00792473
-0.00744418
-0.00698585
-0.00654109
-0.00610369
-0.00567077
-0.00524207
-0.00481809
-0.00439805
-0.00398146
-0.00356776
-0.00315571
-0.00274402
-0.00233125
-0.00191626
-0.00149825
-0.00108101
-0.000671207
-0.000250523
-0.0498355
-0.0557611
-0.0611865
-0.0661035
-0.0705366
-0.0745269
-0.0781239
-0.0813765
-0.084327
-0.0870096
-0.0894444
-0.0916355
-0.0935734
-0.0952399
-0.0966131
-0.0976725
-0.098402
-0.0987917
-0.0988392
-0.0985502
-0.0979379
-0.0970223
-0.0958261
-0.0943762
-0.0927043
-0.0908428
-0.0888218
-0.0866675
-0.0844022
-0.0820441
-0.0796081
-0.0771057
-0.0745456
-0.0719349
-0.0692792
-0.0665834
-0.0638527
-0.0610929
-0.0583113
-0.0555174
-0.0527232
-0.0499445
-0.0472007
-0.0445158
-0.0419176
-0.0394391
-0.0371073
-0.034938
-0.0329322
-0.031073
-0.0293292
-0.0276603
-0.026022
-0.0243864
-0.0227572
-0.0211706
-0.0196821
-0.0183502
-0.0171963
-0.0161821
-0.015267
-0.0143965
-0.0135609
-0.0127649
-0.012025
-0.0113572
-0.0107453
-0.0101613
-0.0095892
-0.00902765
-0.00848458
-0.00796714
-0.00747604
-0.00700819
-0.00655754
-0.00611796
-0.0056852
-0.00525706
-0.00483281
-0.00441219
-0.00399474
-0.00357972
-0.00316615
-0.00275307
-0.00233958
-0.0019248
-0.00150833
-0.00109308
-0.000682327
-0.000251754
-0.0489408
-0.0548863
-0.0603149
-0.0652529
-0.0697405
-0.0738206
-0.0775372
-0.0809342
-0.0840484
-0.086902
-0.0895032
-0.0918476
-0.0939217
-0.0957054
-0.0971764
-0.0983139
-0.0991012
-0.0995284
-0.099594
-0.0993053
-0.0986782
-0.0977362
-0.0965084
-0.0950268
-0.0933244
-0.0914338
-0.0893854
-0.0872064
-0.0849202
-0.0825462
-0.0800995
-0.077592
-0.0750328
-0.0724287
-0.0697851
-0.0671068
-0.0643981
-0.0616642
-0.0589113
-0.0561472
-0.0533823
-0.05063
-0.0479067
-0.0452324
-0.0426303
-0.0401239
-0.0377347
-0.0354777
-0.0333584
-0.0313717
-0.029506
-0.027734
-0.0260134
-0.0243411
-0.022724
-0.0211917
-0.0197841
-0.0185267
-0.0174218
-0.0164287
-0.0154922
-0.0145808
-0.0136945
-0.0128555
-0.0120881
-0.0113961
-0.0107645
-0.0101701
-0.00959647
-0.00904045
-0.008505
-0.00799341
-0.00750569
-0.007038
-0.00658502
-0.0061423
-0.00570694
-0.00527735
-0.0048526
-0.0044319
-0.00401445
-0.00359933
-0.00318551
-0.00277212
-0.00235855
-0.00194439
-0.0015294
-0.00111404
-0.000697317
-0.000258469
)
;

boundaryField
{
    fixedWalls
    {
        type            zeroGradient;
    }
    inflowWall
    {
        type            zeroGradient;
    }
    outflowWall
    {
        type            fixedValue;
        value           uniform 0;
    }
    frontAndBack
    {
        type            empty;
    }
}


// ************************************************************************* //
